 Gaussian 16, Revision A.03,
 Gaussian 16:  ES64L-G16RevA.03 25-Dec-2016

 ---------------------------------
 #p PBE1PBE/Def2SVP td=(nstates=5)
 ---------------------------------

 ----------------------------------------------------
 step_501_chromophore_8 TDDFT with PBE1PBE functional
 ----------------------------------------------------
 Symbolic Z-matrix:
 Charge =  0 Multiplicity = 1

                         Standard orientation:
 ---------------------------------------------------------------------
 Center     Atomic      Atomic             Coordinates (Angstroms)
 Number     Number       Type             X           Y           Z
 ---------------------------------------------------------------------
      1         12           0       -4.800259   -0.992765    0.193134
      2          6           0       -3.632759    2.133236    1.159673
      3          6           0       -4.533201    0.203712   -3.169704
      4          6           0       -5.416799   -4.033212   -0.893531
      5          6           0       -4.284133   -2.119782    3.482688
      6          7           0       -4.041126    0.901565   -0.855934
      7          6           0       -3.707523    2.063225   -0.196364
      8          6           0       -3.328140    3.151115   -1.204746
      9          6           0       -3.899468    2.568758   -2.527120
     10          6           0       -4.144282    1.118682   -2.202080
     11          6           0       -5.206078    3.215761   -3.133693
     12          6           0       -1.815815    3.423168   -1.258330
     13          6           0       -1.401055    4.578271   -2.087101
     14          6           0        0.004309    5.219765   -1.773202
     15          8           0        0.182498    6.406921   -1.911373
     16          8           0        0.957402    4.295604   -1.262218
     17          7           0       -4.949057   -1.838044   -1.780807
     18          6           0       -4.835557   -1.181471   -3.016173
     19          6           0       -5.057931   -2.147762   -4.055372
     20          6           0       -5.184094   -3.433135   -3.410381
     21          6           0       -5.211715   -3.126107   -1.938529
     22          6           0       -4.973516   -1.797774   -5.566755
     23          6           0       -5.342143   -4.740221   -4.193669
     24          8           0       -5.517762   -4.751530   -5.400748
     25          6           0       -5.288630   -6.026659   -3.461751
     26          7           0       -5.055396   -2.769168    1.216439
     27          6           0       -5.349185   -3.877649    0.528376
     28          6           0       -5.323394   -5.129215    1.496193
     29          6           0       -4.907573   -4.572134    2.911804
     30          6           0       -4.672396   -3.014283    2.512141
     31          6           0       -6.572815   -6.048623    1.513225
     32          6           0       -3.602325   -5.244595    3.388381
     33          6           0       -3.448064   -5.366686    4.909233
     34          7           0       -4.105925   -0.220336    2.018180
     35          6           0       -4.069159   -0.739718    3.281913
     36          6           0       -3.726395    0.338650    4.216852
     37          6           0       -3.644760    1.465082    3.442989
     38          6           0       -3.808337    1.097669    2.126594
     39          6           0       -3.643494    0.218184    5.741965
     40          6           0       -3.360926    2.868234    3.478170
     41          8           0       -3.134397    3.625516    4.389536
     42          6           0       -3.356003    3.364522    1.993678
     43          6           0       -4.474713    4.334998    1.841656
     44          8           0       -5.615144    4.187504    2.183872
     45          8           0       -4.016029    5.430242    1.089341
     46          6           0       -5.000905    6.427976    0.781950
     47          6           0        2.303335    4.914102   -1.140468
     48          6           0        3.269951    3.865501   -0.725406
     49          6           0        4.398145    4.027148   -0.018259
     50          6           0        4.997730    5.300114    0.561600
     51          6           0        5.113882    2.723488    0.344227
     52          6           0        5.894783    1.856889   -0.780805
     53          6           0        5.117223    0.565759   -1.057117
     54          6           0        6.139976   -0.484486   -1.683591
     55          6           0        5.495544   -1.188042   -2.875614
     56          6           0        6.455657   -1.564994   -0.672740
     57          6           0        7.982825   -1.800724   -0.675907
     58          6           0        8.645036   -1.543399    0.649960
     59          6           0       10.009874   -2.198652    0.746615
     60          6           0       10.039164   -3.472736    1.656066
     61          6           0       11.088319   -1.245401    1.240840
     62          6           0       12.094591   -0.838083    0.142841
     63          6           0       13.573623   -0.863622    0.631931
     64          6           0       14.427881   -2.033491    0.024166
     65          6           0       15.003719   -1.724809   -1.354852
     66          6           0       15.567723   -2.385001    1.015677
     67          1           0       -4.511656    0.687965   -4.147744
     68          1           0       -5.642176   -5.081799   -1.101004
     69          1           0       -4.182202   -2.419504    4.527907
     70          1           0       -3.924587    4.022573   -0.938139
     71          1           0       -3.206116    2.523425   -3.366219
     72          1           0       -4.938696    3.422188   -4.169813
     73          1           0       -5.752479    3.932113   -2.519603
     74          1           0       -5.937713    2.411413   -3.208663
     75          1           0       -1.211359    2.636660   -1.710962
     76          1           0       -1.427246    3.548794   -0.247659
     77          1           0       -2.178897    5.334098   -1.978530
     78          1           0       -1.431273    4.286495   -3.136744
     79          1           0       -4.002700   -2.257485   -5.754640
     80          1           0       -4.812145   -0.746406   -5.805707
     81          1           0       -5.704854   -2.130459   -6.303575
     82          1           0       -4.391706   -5.953508   -2.846721
     83          1           0       -5.129068   -6.826600   -4.184935
     84          1           0       -6.222363   -6.035155   -2.898922
     85          1           0       -4.528929   -5.771408    1.114994
     86          1           0       -5.677493   -4.635777    3.680090
     87          1           0       -6.318135   -6.971264    0.990747
     88          1           0       -7.415217   -5.495621    1.099038
     89          1           0       -6.776977   -6.372237    2.533838
     90          1           0       -2.805404   -4.633543    2.965313
     91          1           0       -3.415401   -6.220687    2.940267
     92          1           0       -3.315826   -6.439517    5.053539
     93          1           0       -4.267995   -4.936951    5.484818
     94          1           0       -2.522300   -4.891802    5.234341
     95          1           0       -2.792028    0.701027    6.220374
     96          1           0       -3.641706   -0.863445    5.878846
     97          1           0       -4.629142    0.494339    6.116911
     98          1           0       -2.389505    3.843288    1.835846
     99          1           0       -4.747066    7.303282    1.379939
    100          1           0       -6.057385    6.200447    0.926024
    101          1           0       -4.909905    6.654440   -0.280029
    102          1           0        2.258764    5.757172   -0.450705
    103          1           0        2.601415    5.309403   -2.112141
    104          1           0        2.982659    2.848622   -0.993625
    105          1           0        4.464870    6.156365    0.149007
    106          1           0        6.027469    5.455025    0.241684
    107          1           0        4.960453    5.367207    1.649022
    108          1           0        4.365644    2.161799    0.902213
    109          1           0        5.865558    2.920383    1.109004
    110          1           0        6.825918    1.506520   -0.337154
    111          1           0        6.111990    2.413891   -1.692634
    112          1           0        4.360053    0.911225   -1.760809
    113          1           0        4.572105    0.185780   -0.192328
    114          1           0        6.896178    0.183163   -2.095092
    115          1           0        5.395057   -0.578833   -3.773690
    116          1           0        4.477312   -1.339593   -2.517276
    117          1           0        6.015285   -2.088940   -3.203446
    118          1           0        6.006000   -2.522574   -0.935724
    119          1           0        6.066453   -1.294479    0.309023
    120          1           0        8.423841   -1.097446   -1.382098
    121          1           0        8.123002   -2.823598   -1.025612
    122          1           0        7.867857   -1.928694    1.310501
    123          1           0        8.785294   -0.463485    0.665676
    124          1           0       10.337027   -2.516300   -0.243883
    125          1           0       11.063517   -3.724283    1.929383
    126          1           0        9.611772   -4.284869    1.068771
    127          1           0        9.437044   -3.321698    2.551825
    128          1           0       11.682210   -1.724994    2.018850
    129          1           0       10.603687   -0.461255    1.821498
    130          1           0       11.817185    0.200588   -0.035163
    131          1           0       12.008599   -1.456751   -0.750851
    132          1           0       13.605607   -0.726180    1.713019
    133          1           0       14.023388    0.094980    0.375983
    134          1           0       13.754832   -2.888978    0.002437
    135          1           0       14.211613   -1.295599   -1.968475
    136          1           0       15.458568   -2.551353   -1.901802
    137          1           0       15.630999   -0.837427   -1.275357
    138          1           0       16.165790   -3.215181    0.640297
    139          1           0       15.197761   -2.920409    1.889800
    140          1           0       16.165958   -1.496867    1.217748
 ---------------------------------------------------------------------

 SCF Done:  E(RPBE1PBE) =  -3005.36782174     A.U. after   15 cycles

 Excitation energies and oscillator strengths:

 Excited State   1:      Singlet-A      1.9040 eV  651.16 nm  f=0.3735  <S**2>=0.000
     245 -> 248       -0.17025
     246 -> 247        0.69345
     246 <- 247       -0.10636
 This state for optimization and/or second-order correction.
 Total Energy, E(TD-HF/TD-DFT) =  -3005.29784949
 Copying the excited state density for this state as the 1-particle RhoCI density.

 Excited State   2:      Singlet-A      2.3020 eV  538.59 nm  f=0.1129  <S**2>=0.000
     245 -> 247        0.64668
     246 -> 248        0.26902

 Excited State   3:      Singlet-A      2.8789 eV  430.67 nm  f=0.0030  <S**2>=0.000
     241 -> 247        0.10245
     243 -> 247        0.68006

 Excited State   4:      Singlet-A      2.9916 eV  414.44 nm  f=0.0002  <S**2>=0.000
     242 -> 247        0.68065
     242 -> 249       -0.12937

 Excited State   5:      Singlet-A      3.0520 eV  406.24 nm  f=0.0031  <S**2>=0.000
     241 -> 247        0.68170
     243 -> 247       -0.12183

 The electronic state is 1-A.
 Alpha  occ. eigenvalues --  -46.93029 -19.25791 -19.25610 -19.20931 -19.20692
 Alpha  occ. eigenvalues --  -19.18925 -19.18704 -14.42215 -14.41779 -14.39723
 Alpha  occ. eigenvalues --  -14.38884 -10.37091 -10.36522 -10.31800 -10.31458
 Alpha  occ. eigenvalues --  -10.29885 -10.29086 -10.29061 -10.28918 -10.28610
 Alpha  occ. eigenvalues --  -10.28525 -10.28435 -10.28381 -10.27291 -10.26890
 Alpha  occ. eigenvalues --  -10.26314 -10.26152 -10.26089 -10.25979 -10.25959
 Alpha  occ. eigenvalues --  -10.25738 -10.25463 -10.25435 -10.25255 -10.25230
 Alpha  occ. eigenvalues --  -10.25173 -10.24975 -10.24674 -10.24659 -10.24246
 Alpha  occ. eigenvalues --  -10.24094 -10.23965 -10.23935 -10.23735 -10.23712
 Alpha  occ. eigenvalues --  -10.23708 -10.23505 -10.23313 -10.23245 -10.23133
 Alpha  occ. eigenvalues --  -10.23033 -10.23025 -10.22973 -10.22429 -10.22296
 Alpha  occ. eigenvalues --  -10.22239 -10.22130 -10.21972 -10.21955 -10.21916
 Alpha  occ. eigenvalues --  -10.21713 -10.21662 -10.21613 -10.21511 -10.21404
 Alpha  occ. eigenvalues --  -10.21283  -3.15033  -1.87879  -1.87411  -1.87241
 Alpha  occ. eigenvalues --   -1.11364  -1.10223  -1.05248  -1.04661  -1.03663
 Alpha  occ. eigenvalues --   -1.02998  -0.99283  -0.98429  -0.98289  -0.97448
 Alpha  occ. eigenvalues --   -0.87739  -0.84816  -0.84449  -0.83819  -0.83490
 Alpha  occ. eigenvalues --   -0.83119  -0.82999  -0.82460  -0.81688  -0.80872
 Alpha  occ. eigenvalues --   -0.80331  -0.79836  -0.78660  -0.78378  -0.78121
 Alpha  occ. eigenvalues --   -0.76765  -0.76630  -0.75811  -0.75312  -0.74963
 Alpha  occ. eigenvalues --   -0.74038  -0.72688  -0.71826  -0.71409  -0.70585
 Alpha  occ. eigenvalues --   -0.69996  -0.69853  -0.69628  -0.68820  -0.68126
 Alpha  occ. eigenvalues --   -0.67863  -0.66690  -0.66258  -0.64681  -0.63571
 Alpha  occ. eigenvalues --   -0.63006  -0.62022  -0.61546  -0.60612  -0.60539
 Alpha  occ. eigenvalues --   -0.60222  -0.59560  -0.59226  -0.58955  -0.58314
 Alpha  occ. eigenvalues --   -0.58116  -0.57903  -0.57264  -0.57023  -0.54781
 Alpha  occ. eigenvalues --   -0.54673  -0.54413  -0.53573  -0.53309  -0.52940
 Alpha  occ. eigenvalues --   -0.52234  -0.51118  -0.51050  -0.50206  -0.49993
 Alpha  occ. eigenvalues --   -0.49832  -0.49434  -0.49098  -0.48906  -0.48654
 Alpha  occ. eigenvalues --   -0.48588  -0.48353  -0.47932  -0.47870  -0.47543
 Alpha  occ. eigenvalues --   -0.47500  -0.47268  -0.47042  -0.46545  -0.46369
 Alpha  occ. eigenvalues --   -0.46311  -0.46110  -0.45881  -0.45533  -0.45340
 Alpha  occ. eigenvalues --   -0.45325  -0.45005  -0.44837  -0.44597  -0.44322
 Alpha  occ. eigenvalues --   -0.44062  -0.43917  -0.43829  -0.43714  -0.43471
 Alpha  occ. eigenvalues --   -0.43329  -0.42809  -0.42690  -0.42544  -0.42246
 Alpha  occ. eigenvalues --   -0.42204  -0.41962  -0.41878  -0.41769  -0.41518
 Alpha  occ. eigenvalues --   -0.41380  -0.41115  -0.41062  -0.40639  -0.40352
 Alpha  occ. eigenvalues --   -0.40148  -0.40118  -0.39961  -0.39884  -0.39843
 Alpha  occ. eigenvalues --   -0.39445  -0.39365  -0.39284  -0.38762  -0.38747
 Alpha  occ. eigenvalues --   -0.38667  -0.38327  -0.38160  -0.38133  -0.38017
 Alpha  occ. eigenvalues --   -0.37895  -0.37757  -0.37597  -0.37181  -0.37156
 Alpha  occ. eigenvalues --   -0.37054  -0.36683  -0.36595  -0.36489  -0.35877
 Alpha  occ. eigenvalues --   -0.35700  -0.35457  -0.35333  -0.35199  -0.35031
 Alpha  occ. eigenvalues --   -0.34745  -0.34718  -0.34008  -0.33821  -0.33750
 Alpha  occ. eigenvalues --   -0.33353  -0.33048  -0.32946  -0.32928  -0.32642
 Alpha  occ. eigenvalues --   -0.32476  -0.32148  -0.31965  -0.31460  -0.31210
 Alpha  occ. eigenvalues --   -0.31017  -0.30148  -0.29977  -0.29649  -0.29266
 Alpha  occ. eigenvalues --   -0.29253  -0.28903  -0.28709  -0.27384  -0.26014
 Alpha  occ. eigenvalues --   -0.25798  -0.25579  -0.25119  -0.25085  -0.21550
 Alpha  occ. eigenvalues --   -0.19271
 Alpha virt. eigenvalues --   -0.11504  -0.05476  -0.03298  -0.01691  -0.00723
 Alpha virt. eigenvalues --    0.00298   0.00706   0.01075   0.01353   0.02850
 Alpha virt. eigenvalues --    0.03865   0.04449   0.04793   0.05432   0.05609

 Mulliken charges:
               1
     1  Mg   0.961355
     2  C   -0.029438
     3  C   -0.058901
     4  C   -0.085180
     5  C   -0.057908
     6  N   -0.367221
     7  C   -0.016327
     8  C    0.000063
     9  C   -0.177550
    10  C    0.049644
    11  C    0.026734
    12  C    0.021076
    13  C   -0.021349
    14  C    0.251217
    15  O   -0.239543
    16  O   -0.406162
    17  N   -0.467126
    18  C    0.185227
    19  C   -0.145295
    20  C   -0.124032
    21  C    0.235468
    22  C    0.052765
    23  C    0.027645
    24  O   -0.235795
    25  C   -0.013102
    26  N   -0.429702
    27  C    0.083547
    28  C   -0.143543
    29  C   -0.125156
    30  C    0.105682
    31  C    0.011575
    32  C   -0.042752
    33  C   -0.058222
    34  N   -0.464776
    35  C    0.100722
    36  C   -0.230318
    37  C    0.008833
    38  C    0.171729
    39  C    0.091805
    40  C    0.116586
    41  O   -0.194108
    42  C   -0.112809
    43  C    0.282268
    44  O   -0.217670
    45  O   -0.380367
    46  C    0.109192
    47  C    0.248852
    48  C   -0.138963
    49  C   -0.208110
    50  C    0.027159
    51  C   -0.007281
    52  C   -0.054404
    53  C   -0.040968
    54  C   -0.227780
    55  C   -0.018858
    56  C    0.037537
    57  C   -0.092871
    58  C    0.041261
    59  C   -0.222238
    60  C   -0.013596
    61  C   -0.008573
    62  C   -0.030530
    63  C   -0.028714
    64  C   -0.213747
    65  C    0.004833
    66  C   -0.021224
    67  H   -0.000014
    68  H   -0.007428
    69  H    0.003522
    70  H    0.041798
    71  H    0.042389
    72  H    0.047786
    73  H    0.052719
    74  H    0.038072
    75  H    0.040092
    76  H    0.047109
    77  H    0.051228
    78  H    0.059380
    79  H    0.063454
    80  H    0.022945
    81  H    0.074855
    82  H    0.058519
    83  H    0.058121
    84  H    0.083832
    85  H    0.052075
    86  H    0.052839
    87  H    0.041037
    88  H    0.055895
    89  H    0.040379
    90  H    0.042196
    91  H    0.038908
    92  H    0.043863
    93  H    0.048198
    94  H    0.044138
    95  H    0.074865
    96  H    0.015222
    97  H    0.065042
    98  H    0.079743
    99  H    0.062203
   100  H    0.065700
   101  H    0.045886
   102  H    0.058764
   103  H    0.056615
   104  H    0.038775
   105  H    0.027211
   106  H    0.048701
   107  H    0.062287
   108  H    0.047404
   109  H    0.011301
   110  H    0.038340
   111  H    0.047553
   112  H    0.026114
   113  H    0.030844
   114  H    0.038554
   115  H    0.022915
   116  H    0.036151
   117  H    0.036032
   118  H    0.029404
   119  H    0.025870
   120  H    0.031450
   121  H    0.027362
   122  H    0.026295
   123  H    0.028687
   124  H    0.031194
   125  H    0.038358
   126  H    0.028491
   127  H    0.036867
   128  H    0.009135
   129  H    0.019077
   130  H    0.027638
   131  H    0.039623
   132  H    0.021651
   133  H    0.007754
   134  H    0.029746
   135  H    0.019460
   136  H    0.050637
   137  H    0.024991
   138  H    0.020776
   139  H    0.027405
   140  H    0.043435
 Sum of Mulliken charges =  -0.00000

 Dipole moment (field-independent basis, Debye):
    X=              1.1411    Y=             -3.4146    Z=             -0.2193  Tot=              3.6069
 Quadrupole moment (field-independent basis, Debye-Ang):
   XX=           -394.0783   YY=           -399.9879   ZZ=           -423.1337
   XY=             10.8949   XZ=             -4.6369   YZ=            -40.8585

 Normal termination of Gaussian 16 at Thu May  5 01:10:29 2022.
