 Gaussian 16, Revision A.03,
 Gaussian 16:  ES64L-G16RevA.03 25-Dec-2016

 --------------------------------
 #p wB97XD/Def2SVP td=(nstates=5)
 --------------------------------

 ---------------------------------------------------
 step_501_chromophore_8 TDDFT with wB97XD functional
 ---------------------------------------------------
 Symbolic Z-matrix:
 Charge =  0 Multiplicity = 1

                         Standard orientation:
 ---------------------------------------------------------------------
 Center     Atomic      Atomic             Coordinates (Angstroms)
 Number     Number       Type             X           Y           Z
 ---------------------------------------------------------------------
      1         12           0       -4.800259   -0.992765    0.193134
      2          6           0       -3.632759    2.133236    1.159673
      3          6           0       -4.533201    0.203712   -3.169704
      4          6           0       -5.416799   -4.033212   -0.893531
      5          6           0       -4.284133   -2.119782    3.482688
      6          7           0       -4.041126    0.901565   -0.855934
      7          6           0       -3.707523    2.063225   -0.196364
      8          6           0       -3.328140    3.151115   -1.204746
      9          6           0       -3.899468    2.568758   -2.527120
     10          6           0       -4.144282    1.118682   -2.202080
     11          6           0       -5.206078    3.215761   -3.133693
     12          6           0       -1.815815    3.423168   -1.258330
     13          6           0       -1.401055    4.578271   -2.087101
     14          6           0        0.004309    5.219765   -1.773202
     15          8           0        0.182498    6.406921   -1.911373
     16          8           0        0.957402    4.295604   -1.262218
     17          7           0       -4.949057   -1.838044   -1.780807
     18          6           0       -4.835557   -1.181471   -3.016173
     19          6           0       -5.057931   -2.147762   -4.055372
     20          6           0       -5.184094   -3.433135   -3.410381
     21          6           0       -5.211715   -3.126107   -1.938529
     22          6           0       -4.973516   -1.797774   -5.566755
     23          6           0       -5.342143   -4.740221   -4.193669
     24          8           0       -5.517762   -4.751530   -5.400748
     25          6           0       -5.288630   -6.026659   -3.461751
     26          7           0       -5.055396   -2.769168    1.216439
     27          6           0       -5.349185   -3.877649    0.528376
     28          6           0       -5.323394   -5.129215    1.496193
     29          6           0       -4.907573   -4.572134    2.911804
     30          6           0       -4.672396   -3.014283    2.512141
     31          6           0       -6.572815   -6.048623    1.513225
     32          6           0       -3.602325   -5.244595    3.388381
     33          6           0       -3.448064   -5.366686    4.909233
     34          7           0       -4.105925   -0.220336    2.018180
     35          6           0       -4.069159   -0.739718    3.281913
     36          6           0       -3.726395    0.338650    4.216852
     37          6           0       -3.644760    1.465082    3.442989
     38          6           0       -3.808337    1.097669    2.126594
     39          6           0       -3.643494    0.218184    5.741965
     40          6           0       -3.360926    2.868234    3.478170
     41          8           0       -3.134397    3.625516    4.389536
     42          6           0       -3.356003    3.364522    1.993678
     43          6           0       -4.474713    4.334998    1.841656
     44          8           0       -5.615144    4.187504    2.183872
     45          8           0       -4.016029    5.430242    1.089341
     46          6           0       -5.000905    6.427976    0.781950
     47          6           0        2.303335    4.914102   -1.140468
     48          6           0        3.269951    3.865501   -0.725406
     49          6           0        4.398145    4.027148   -0.018259
     50          6           0        4.997730    5.300114    0.561600
     51          6           0        5.113882    2.723488    0.344227
     52          6           0        5.894783    1.856889   -0.780805
     53          6           0        5.117223    0.565759   -1.057117
     54          6           0        6.139976   -0.484486   -1.683591
     55          6           0        5.495544   -1.188042   -2.875614
     56          6           0        6.455657   -1.564994   -0.672740
     57          6           0        7.982825   -1.800724   -0.675907
     58          6           0        8.645036   -1.543399    0.649960
     59          6           0       10.009874   -2.198652    0.746615
     60          6           0       10.039164   -3.472736    1.656066
     61          6           0       11.088319   -1.245401    1.240840
     62          6           0       12.094591   -0.838083    0.142841
     63          6           0       13.573623   -0.863622    0.631931
     64          6           0       14.427881   -2.033491    0.024166
     65          6           0       15.003719   -1.724809   -1.354852
     66          6           0       15.567723   -2.385001    1.015677
     67          1           0       -4.511656    0.687965   -4.147744
     68          1           0       -5.642176   -5.081799   -1.101004
     69          1           0       -4.182202   -2.419504    4.527907
     70          1           0       -3.924587    4.022573   -0.938139
     71          1           0       -3.206116    2.523425   -3.366219
     72          1           0       -4.938696    3.422188   -4.169813
     73          1           0       -5.752479    3.932113   -2.519603
     74          1           0       -5.937713    2.411413   -3.208663
     75          1           0       -1.211359    2.636660   -1.710962
     76          1           0       -1.427246    3.548794   -0.247659
     77          1           0       -2.178897    5.334098   -1.978530
     78          1           0       -1.431273    4.286495   -3.136744
     79          1           0       -4.002700   -2.257485   -5.754640
     80          1           0       -4.812145   -0.746406   -5.805707
     81          1           0       -5.704854   -2.130459   -6.303575
     82          1           0       -4.391706   -5.953508   -2.846721
     83          1           0       -5.129068   -6.826600   -4.184935
     84          1           0       -6.222363   -6.035155   -2.898922
     85          1           0       -4.528929   -5.771408    1.114994
     86          1           0       -5.677493   -4.635777    3.680090
     87          1           0       -6.318135   -6.971264    0.990747
     88          1           0       -7.415217   -5.495621    1.099038
     89          1           0       -6.776977   -6.372237    2.533838
     90          1           0       -2.805404   -4.633543    2.965313
     91          1           0       -3.415401   -6.220687    2.940267
     92          1           0       -3.315826   -6.439517    5.053539
     93          1           0       -4.267995   -4.936951    5.484818
     94          1           0       -2.522300   -4.891802    5.234341
     95          1           0       -2.792028    0.701027    6.220374
     96          1           0       -3.641706   -0.863445    5.878846
     97          1           0       -4.629142    0.494339    6.116911
     98          1           0       -2.389505    3.843288    1.835846
     99          1           0       -4.747066    7.303282    1.379939
    100          1           0       -6.057385    6.200447    0.926024
    101          1           0       -4.909905    6.654440   -0.280029
    102          1           0        2.258764    5.757172   -0.450705
    103          1           0        2.601415    5.309403   -2.112141
    104          1           0        2.982659    2.848622   -0.993625
    105          1           0        4.464870    6.156365    0.149007
    106          1           0        6.027469    5.455025    0.241684
    107          1           0        4.960453    5.367207    1.649022
    108          1           0        4.365644    2.161799    0.902213
    109          1           0        5.865558    2.920383    1.109004
    110          1           0        6.825918    1.506520   -0.337154
    111          1           0        6.111990    2.413891   -1.692634
    112          1           0        4.360053    0.911225   -1.760809
    113          1           0        4.572105    0.185780   -0.192328
    114          1           0        6.896178    0.183163   -2.095092
    115          1           0        5.395057   -0.578833   -3.773690
    116          1           0        4.477312   -1.339593   -2.517276
    117          1           0        6.015285   -2.088940   -3.203446
    118          1           0        6.006000   -2.522574   -0.935724
    119          1           0        6.066453   -1.294479    0.309023
    120          1           0        8.423841   -1.097446   -1.382098
    121          1           0        8.123002   -2.823598   -1.025612
    122          1           0        7.867857   -1.928694    1.310501
    123          1           0        8.785294   -0.463485    0.665676
    124          1           0       10.337027   -2.516300   -0.243883
    125          1           0       11.063517   -3.724283    1.929383
    126          1           0        9.611772   -4.284869    1.068771
    127          1           0        9.437044   -3.321698    2.551825
    128          1           0       11.682210   -1.724994    2.018850
    129          1           0       10.603687   -0.461255    1.821498
    130          1           0       11.817185    0.200588   -0.035163
    131          1           0       12.008599   -1.456751   -0.750851
    132          1           0       13.605607   -0.726180    1.713019
    133          1           0       14.023388    0.094980    0.375983
    134          1           0       13.754832   -2.888978    0.002437
    135          1           0       14.211613   -1.295599   -1.968475
    136          1           0       15.458568   -2.551353   -1.901802
    137          1           0       15.630999   -0.837427   -1.275357
    138          1           0       16.165790   -3.215181    0.640297
    139          1           0       15.197761   -2.920409    1.889800
    140          1           0       16.165958   -1.496867    1.217748
 ---------------------------------------------------------------------

 SCF Done:  E(RwB97XD) =  -3007.87669925     A.U. after   19 cycles

 Excitation energies and oscillator strengths:

 Excited State   1:      Singlet-A      1.7220 eV  719.99 nm  f=0.3851  <S**2>=0.000
     245 -> 248       -0.17640
     246 -> 247        0.68543
     245 <- 248       -0.11120
 This state for optimization and/or second-order correction.
 Total Energy, E(TD-HF/TD-DFT) =  -3007.81341565
 Copying the excited state density for this state as the 1-particle RhoCI density.

 Excited State   2:      Singlet-A      2.2419 eV  553.04 nm  f=0.1134  <S**2>=0.000
     245 -> 247        0.63535
     246 -> 248        0.29228

 Excited State   3:      Singlet-A      3.2992 eV  375.81 nm  f=0.0028  <S**2>=0.000
     240 -> 247        0.12800
     242 -> 247       -0.40934
     243 -> 247        0.52299
     246 -> 248        0.11714

 Excited State   4:      Singlet-A      3.5453 eV  349.71 nm  f=0.0002  <S**2>=0.000
     240 -> 247        0.54096
     240 -> 248        0.12154
     240 -> 249       -0.24350
     240 -> 250       -0.16905
     242 -> 247        0.20393
     243 -> 247        0.10330

 Excited State   5:      Singlet-A      3.5963 eV  344.75 nm  f=0.1181  <S**2>=0.000
     240 -> 247       -0.17388
     242 -> 247        0.36931
     243 -> 247        0.38293
     245 -> 247        0.11926
     246 -> 248       -0.34737

 The electronic state is 1-A.
 Alpha  occ. eigenvalues --  -46.95996 -19.30310 -19.30118 -19.25574 -19.25357
 Alpha  occ. eigenvalues --  -19.23754 -19.23505 -14.47226 -14.46966 -14.44859
 Alpha  occ. eigenvalues --  -14.43650 -10.43829 -10.43287 -10.38856 -10.38093
 Alpha  occ. eigenvalues --  -10.36446 -10.35709 -10.35565 -10.35328 -10.35198
 Alpha  occ. eigenvalues --  -10.35059 -10.34841 -10.34538 -10.33786 -10.33162
 Alpha  occ. eigenvalues --  -10.32343 -10.32300 -10.32279 -10.32264 -10.32242
 Alpha  occ. eigenvalues --  -10.32008 -10.31939 -10.31906 -10.31737 -10.31608
 Alpha  occ. eigenvalues --  -10.31430 -10.31392 -10.30985 -10.30891 -10.30724
 Alpha  occ. eigenvalues --  -10.30490 -10.30447 -10.30400 -10.30158 -10.29989
 Alpha  occ. eigenvalues --  -10.29982 -10.29943 -10.29872 -10.29662 -10.29447
 Alpha  occ. eigenvalues --  -10.29373 -10.29351 -10.29273 -10.28697 -10.28650
 Alpha  occ. eigenvalues --  -10.28583 -10.28460 -10.28393 -10.28314 -10.28133
 Alpha  occ. eigenvalues --  -10.28043 -10.28025 -10.27920 -10.27873 -10.27839
 Alpha  occ. eigenvalues --  -10.27628  -3.21875  -1.95467  -1.94999  -1.94827
 Alpha  occ. eigenvalues --   -1.18708  -1.17568  -1.12502  -1.12375  -1.10966
 Alpha  occ. eigenvalues --   -1.10304  -1.06592  -1.05831  -1.05734  -1.04863
 Alpha  occ. eigenvalues --   -0.95205  -0.92461  -0.92086  -0.91468  -0.91195
 Alpha  occ. eigenvalues --   -0.90719  -0.90649  -0.90040  -0.89344  -0.88449
 Alpha  occ. eigenvalues --   -0.87915  -0.87653  -0.86315  -0.85946  -0.85825
 Alpha  occ. eigenvalues --   -0.84525  -0.84293  -0.83420  -0.82934  -0.82582
 Alpha  occ. eigenvalues --   -0.81696  -0.80262  -0.79500  -0.79142  -0.78177
 Alpha  occ. eigenvalues --   -0.77644  -0.77506  -0.77326  -0.76491  -0.75774
 Alpha  occ. eigenvalues --   -0.75286  -0.74295  -0.73821  -0.72317  -0.71017
 Alpha  occ. eigenvalues --   -0.70516  -0.69647  -0.69192  -0.68241  -0.68034
 Alpha  occ. eigenvalues --   -0.67651  -0.67139  -0.66696  -0.66575  -0.65978
 Alpha  occ. eigenvalues --   -0.65599  -0.65559  -0.64658  -0.64625  -0.62323
 Alpha  occ. eigenvalues --   -0.62181  -0.61798  -0.60947  -0.60752  -0.60318
 Alpha  occ. eigenvalues --   -0.59561  -0.58625  -0.58454  -0.57639  -0.57472
 Alpha  occ. eigenvalues --   -0.57200  -0.56790  -0.56507  -0.56294  -0.56047
 Alpha  occ. eigenvalues --   -0.55962  -0.55766  -0.55422  -0.55186  -0.55100
 Alpha  occ. eigenvalues --   -0.54915  -0.54531  -0.54446  -0.53819  -0.53758
 Alpha  occ. eigenvalues --   -0.53632  -0.53561  -0.53305  -0.52903  -0.52699
 Alpha  occ. eigenvalues --   -0.52554  -0.52295  -0.52235  -0.51847  -0.51612
 Alpha  occ. eigenvalues --   -0.51403  -0.51213  -0.51171  -0.50921  -0.50819
 Alpha  occ. eigenvalues --   -0.50795  -0.50096  -0.49969  -0.49840  -0.49492
 Alpha  occ. eigenvalues --   -0.49478  -0.49195  -0.49079  -0.48974  -0.48796
 Alpha  occ. eigenvalues --   -0.48627  -0.48395  -0.48287  -0.47876  -0.47611
 Alpha  occ. eigenvalues --   -0.47337  -0.47293  -0.47147  -0.47052  -0.47017
 Alpha  occ. eigenvalues --   -0.46638  -0.46563  -0.46469  -0.45904  -0.45900
 Alpha  occ. eigenvalues --   -0.45829  -0.45575  -0.45298  -0.45253  -0.45156
 Alpha  occ. eigenvalues --   -0.45049  -0.44794  -0.44506  -0.44295  -0.44259
 Alpha  occ. eigenvalues --   -0.44125  -0.44006  -0.43700  -0.43507  -0.42942
 Alpha  occ. eigenvalues --   -0.42762  -0.42485  -0.42363  -0.42250  -0.42107
 Alpha  occ. eigenvalues --   -0.41762  -0.41610  -0.41054  -0.40915  -0.40749
 Alpha  occ. eigenvalues --   -0.40408  -0.40099  -0.39989  -0.39963  -0.39646
 Alpha  occ. eigenvalues --   -0.39498  -0.39205  -0.39017  -0.38475  -0.38121
 Alpha  occ. eigenvalues --   -0.37961  -0.37198  -0.36874  -0.36409  -0.36230
 Alpha  occ. eigenvalues --   -0.35917  -0.35868  -0.35568  -0.33982  -0.33052
 Alpha  occ. eigenvalues --   -0.32587  -0.32253  -0.32116  -0.31805  -0.26603
 Alpha  occ. eigenvalues --   -0.23482
 Alpha virt. eigenvalues --   -0.07368  -0.00023   0.03003   0.04866   0.05215
 Alpha virt. eigenvalues --    0.07203   0.07608   0.07837   0.08012   0.09154
 Alpha virt. eigenvalues --    0.10467   0.11351   0.11462   0.12139   0.12399

 Mulliken charges:
               1
     1  Mg   0.953920
     2  C   -0.018360
     3  C   -0.077925
     4  C   -0.102390
     5  C   -0.071015
     6  N   -0.331946
     7  C   -0.057381
     8  C    0.038909
     9  C   -0.155027
    10  C    0.039119
    11  C    0.036318
    12  C    0.033493
    13  C   -0.005341
    14  C    0.243890
    15  O   -0.238761
    16  O   -0.406262
    17  N   -0.434213
    18  C    0.181764
    19  C   -0.135658
    20  C   -0.121104
    21  C    0.236108
    22  C    0.063023
    23  C    0.025021
    24  O   -0.229631
    25  C    0.001739
    26  N   -0.396308
    27  C    0.068708
    28  C   -0.119372
    29  C   -0.097042
    30  C    0.094214
    31  C    0.022102
    32  C   -0.030708
    33  C   -0.043119
    34  N   -0.425223
    35  C    0.086269
    36  C   -0.233802
    37  C    0.018917
    38  C    0.142442
    39  C    0.107344
    40  C    0.094444
    41  O   -0.186289
    42  C   -0.073982
    43  C    0.260323
    44  O   -0.213119
    45  O   -0.378943
    46  C    0.124504
    47  C    0.260072
    48  C   -0.144716
    49  C   -0.196902
    50  C    0.041673
    51  C    0.011061
    52  C   -0.032938
    53  C   -0.029802
    54  C   -0.191536
    55  C   -0.005510
    56  C    0.048235
    57  C   -0.074585
    58  C    0.058139
    59  C   -0.192529
    60  C    0.002021
    61  C    0.006424
    62  C   -0.012222
    63  C   -0.017994
    64  C   -0.179720
    65  C    0.016473
    66  C   -0.009148
    67  H   -0.006553
    68  H   -0.019708
    69  H   -0.006081
    70  H    0.019676
    71  H    0.030867
    72  H    0.043469
    73  H    0.049957
    74  H    0.029472
    75  H    0.032758
    76  H    0.035292
    77  H    0.045108
    78  H    0.052431
    79  H    0.058554
    80  H    0.019533
    81  H    0.074530
    82  H    0.052433
    83  H    0.057976
    84  H    0.079057
    85  H    0.040310
    86  H    0.042203
    87  H    0.035853
    88  H    0.050093
    89  H    0.035334
    90  H    0.033020
    91  H    0.029925
    92  H    0.038215
    93  H    0.042382
    94  H    0.038807
    95  H    0.070533
    96  H    0.005291
    97  H    0.058244
    98  H    0.074258
    99  H    0.058190
   100  H    0.061855
   101  H    0.041105
   102  H    0.053183
   103  H    0.051439
   104  H    0.033862
   105  H    0.020757
   106  H    0.043214
   107  H    0.057835
   108  H    0.038597
   109  H    0.004537
   110  H    0.024588
   111  H    0.040585
   112  H    0.014336
   113  H    0.022236
   114  H    0.024753
   115  H    0.017423
   116  H    0.027735
   117  H    0.029533
   118  H    0.021756
   119  H    0.015965
   120  H    0.019785
   121  H    0.018709
   122  H    0.016189
   123  H    0.017258
   124  H    0.015609
   125  H    0.031442
   126  H    0.022233
   127  H    0.030490
   128  H   -0.004239
   129  H    0.011859
   130  H    0.020248
   131  H    0.028594
   132  H    0.013730
   133  H   -0.001003
   134  H    0.017219
   135  H    0.012060
   136  H    0.046559
   137  H    0.017355
   138  H    0.014610
   139  H    0.021415
   140  H    0.037010
 Sum of Mulliken charges =  -0.00000

 Dipole moment (field-independent basis, Debye):
    X=              0.9623    Y=             -3.6982    Z=             -0.9636  Tot=              3.9410
 Quadrupole moment (field-independent basis, Debye-Ang):
   XX=           -392.0067   YY=           -399.0572   ZZ=           -422.9247
   XY=             12.1287   XZ=             -1.0520   YZ=            -39.5027

 Normal termination of Gaussian 16 at Thu May  5 01:41:47 2022.
