 Gaussian 16, Revision A.03,
 Gaussian 16:  ES64L-G16RevA.03 25-Dec-2016

 --------------------
 #p ZINDO=(nstates=5)
 --------------------

 ----------------------------
 step_501_chromophore_8 ZINDO
 ----------------------------
 Symbolic Z-matrix:
 Charge =  0 Multiplicity = 1

                         Standard orientation:
 ---------------------------------------------------------------------
 Center     Atomic      Atomic             Coordinates (Angstroms)
 Number     Number       Type             X           Y           Z
 ---------------------------------------------------------------------
      1         12           0       -4.800259   -0.992765    0.193134
      2          6           0       -3.632759    2.133236    1.159673
      3          6           0       -4.533201    0.203712   -3.169704
      4          6           0       -5.416799   -4.033212   -0.893531
      5          6           0       -4.284133   -2.119782    3.482688
      6          7           0       -4.041126    0.901565   -0.855934
      7          6           0       -3.707523    2.063225   -0.196364
      8          6           0       -3.328140    3.151115   -1.204746
      9          6           0       -3.899468    2.568758   -2.527120
     10          6           0       -4.144282    1.118682   -2.202080
     11          6           0       -5.206078    3.215761   -3.133693
     12          6           0       -1.815815    3.423168   -1.258330
     13          6           0       -1.401055    4.578271   -2.087101
     14          6           0        0.004309    5.219765   -1.773202
     15          8           0        0.182498    6.406921   -1.911373
     16          8           0        0.957402    4.295604   -1.262218
     17          7           0       -4.949057   -1.838044   -1.780807
     18          6           0       -4.835557   -1.181471   -3.016173
     19          6           0       -5.057931   -2.147762   -4.055372
     20          6           0       -5.184094   -3.433135   -3.410381
     21          6           0       -5.211715   -3.126107   -1.938529
     22          6           0       -4.973516   -1.797774   -5.566755
     23          6           0       -5.342143   -4.740221   -4.193669
     24          8           0       -5.517762   -4.751530   -5.400748
     25          6           0       -5.288630   -6.026659   -3.461751
     26          7           0       -5.055396   -2.769168    1.216439
     27          6           0       -5.349185   -3.877649    0.528376
     28          6           0       -5.323394   -5.129215    1.496193
     29          6           0       -4.907573   -4.572134    2.911804
     30          6           0       -4.672396   -3.014283    2.512141
     31          6           0       -6.572815   -6.048623    1.513225
     32          6           0       -3.602325   -5.244595    3.388381
     33          6           0       -3.448064   -5.366686    4.909233
     34          7           0       -4.105925   -0.220336    2.018180
     35          6           0       -4.069159   -0.739718    3.281913
     36          6           0       -3.726395    0.338650    4.216852
     37          6           0       -3.644760    1.465082    3.442989
     38          6           0       -3.808337    1.097669    2.126594
     39          6           0       -3.643494    0.218184    5.741965
     40          6           0       -3.360926    2.868234    3.478170
     41          8           0       -3.134397    3.625516    4.389536
     42          6           0       -3.356003    3.364522    1.993678
     43          6           0       -4.474713    4.334998    1.841656
     44          8           0       -5.615144    4.187504    2.183872
     45          8           0       -4.016029    5.430242    1.089341
     46          6           0       -5.000905    6.427976    0.781950
     47          6           0        2.303335    4.914102   -1.140468
     48          6           0        3.269951    3.865501   -0.725406
     49          6           0        4.398145    4.027148   -0.018259
     50          6           0        4.997730    5.300114    0.561600
     51          6           0        5.113882    2.723488    0.344227
     52          6           0        5.894783    1.856889   -0.780805
     53          6           0        5.117223    0.565759   -1.057117
     54          6           0        6.139976   -0.484486   -1.683591
     55          6           0        5.495544   -1.188042   -2.875614
     56          6           0        6.455657   -1.564994   -0.672740
     57          6           0        7.982825   -1.800724   -0.675907
     58          6           0        8.645036   -1.543399    0.649960
     59          6           0       10.009874   -2.198652    0.746615
     60          6           0       10.039164   -3.472736    1.656066
     61          6           0       11.088319   -1.245401    1.240840
     62          6           0       12.094591   -0.838083    0.142841
     63          6           0       13.573623   -0.863622    0.631931
     64          6           0       14.427881   -2.033491    0.024166
     65          6           0       15.003719   -1.724809   -1.354852
     66          6           0       15.567723   -2.385001    1.015677
     67          1           0       -4.511656    0.687965   -4.147744
     68          1           0       -5.642176   -5.081799   -1.101004
     69          1           0       -4.182202   -2.419504    4.527907
     70          1           0       -3.924587    4.022573   -0.938139
     71          1           0       -3.206116    2.523425   -3.366219
     72          1           0       -4.938696    3.422188   -4.169813
     73          1           0       -5.752479    3.932113   -2.519603
     74          1           0       -5.937713    2.411413   -3.208663
     75          1           0       -1.211359    2.636660   -1.710962
     76          1           0       -1.427246    3.548794   -0.247659
     77          1           0       -2.178897    5.334098   -1.978530
     78          1           0       -1.431273    4.286495   -3.136744
     79          1           0       -4.002700   -2.257485   -5.754640
     80          1           0       -4.812145   -0.746406   -5.805707
     81          1           0       -5.704854   -2.130459   -6.303575
     82          1           0       -4.391706   -5.953508   -2.846721
     83          1           0       -5.129068   -6.826600   -4.184935
     84          1           0       -6.222363   -6.035155   -2.898922
     85          1           0       -4.528929   -5.771408    1.114994
     86          1           0       -5.677493   -4.635777    3.680090
     87          1           0       -6.318135   -6.971264    0.990747
     88          1           0       -7.415217   -5.495621    1.099038
     89          1           0       -6.776977   -6.372237    2.533838
     90          1           0       -2.805404   -4.633543    2.965313
     91          1           0       -3.415401   -6.220687    2.940267
     92          1           0       -3.315826   -6.439517    5.053539
     93          1           0       -4.267995   -4.936951    5.484818
     94          1           0       -2.522300   -4.891802    5.234341
     95          1           0       -2.792028    0.701027    6.220374
     96          1           0       -3.641706   -0.863445    5.878846
     97          1           0       -4.629142    0.494339    6.116911
     98          1           0       -2.389505    3.843288    1.835846
     99          1           0       -4.747066    7.303282    1.379939
    100          1           0       -6.057385    6.200447    0.926024
    101          1           0       -4.909905    6.654440   -0.280029
    102          1           0        2.258764    5.757172   -0.450705
    103          1           0        2.601415    5.309403   -2.112141
    104          1           0        2.982659    2.848622   -0.993625
    105          1           0        4.464870    6.156365    0.149007
    106          1           0        6.027469    5.455025    0.241684
    107          1           0        4.960453    5.367207    1.649022
    108          1           0        4.365644    2.161799    0.902213
    109          1           0        5.865558    2.920383    1.109004
    110          1           0        6.825918    1.506520   -0.337154
    111          1           0        6.111990    2.413891   -1.692634
    112          1           0        4.360053    0.911225   -1.760809
    113          1           0        4.572105    0.185780   -0.192328
    114          1           0        6.896178    0.183163   -2.095092
    115          1           0        5.395057   -0.578833   -3.773690
    116          1           0        4.477312   -1.339593   -2.517276
    117          1           0        6.015285   -2.088940   -3.203446
    118          1           0        6.006000   -2.522574   -0.935724
    119          1           0        6.066453   -1.294479    0.309023
    120          1           0        8.423841   -1.097446   -1.382098
    121          1           0        8.123002   -2.823598   -1.025612
    122          1           0        7.867857   -1.928694    1.310501
    123          1           0        8.785294   -0.463485    0.665676
    124          1           0       10.337027   -2.516300   -0.243883
    125          1           0       11.063517   -3.724283    1.929383
    126          1           0        9.611772   -4.284869    1.068771
    127          1           0        9.437044   -3.321698    2.551825
    128          1           0       11.682210   -1.724994    2.018850
    129          1           0       10.603687   -0.461255    1.821498
    130          1           0       11.817185    0.200588   -0.035163
    131          1           0       12.008599   -1.456751   -0.750851
    132          1           0       13.605607   -0.726180    1.713019
    133          1           0       14.023388    0.094980    0.375983
    134          1           0       13.754832   -2.888978    0.002437
    135          1           0       14.211613   -1.295599   -1.968475
    136          1           0       15.458568   -2.551353   -1.901802
    137          1           0       15.630999   -0.837427   -1.275357
    138          1           0       16.165790   -3.215181    0.640297
    139          1           0       15.197761   -2.920409    1.889800
    140          1           0       16.165958   -1.496867    1.217748
 ---------------------------------------------------------------------

 SCF Done:  E(RZINDO/S) =  -474.442704285     A.U. after   19 cycles

 Excitation energies and oscillator strengths:

 Excited State   1:      Singlet-A      1.3206 eV  938.88 nm  f=0.5800  <S**2>=0.000
     175 ->178         0.16773
     176 ->177         0.67037
 This state for optimization and/or second-order correction.
 Total Energy, E(CIS/TDA) =  -474.394174632
 Copying the excited state density for this state as the 1-particle RhoCI density.

 Excited State   2:      Singlet-A      1.9723 eV  628.62 nm  f=0.0357  <S**2>=0.000
     175 ->177         0.53731
     176 ->178        -0.42829

 Excited State   3:      Singlet-A      3.0008 eV  413.17 nm  f=0.0413  <S**2>=0.000
     167 ->179        -0.12791
     168 ->177         0.28624
     168 ->178        -0.15005
     168 ->179        -0.33014
     168 ->181         0.12445
     168 ->182        -0.21972
     168 ->185        -0.22204
     171 ->177         0.21182
     176 ->178         0.12273

 Excited State   4:      Singlet-A      3.0573 eV  405.54 nm  f=0.5653  <S**2>=0.000
     170 ->177         0.21239
     170 ->179         0.22674
     170 ->181         0.10538
     170 ->182        -0.24181
     170 ->184         0.10843
     170 ->185         0.12846
     170 ->188         0.13406
     175 ->177         0.27489
     176 ->178         0.36333

 Excited State   5:      Singlet-A      3.0647 eV  404.55 nm  f=0.5792  <S**2>=0.000
     170 ->177        -0.18602
     170 ->179        -0.22436
     170 ->181        -0.10230
     170 ->182         0.23548
     170 ->184        -0.10484
     170 ->185        -0.12808
     170 ->188        -0.12949
     175 ->177         0.26536
     176 ->178         0.35669
     176 ->179         0.12297

 The electronic state is 1-A.
 Alpha  occ. eigenvalues --   -1.85288  -1.80866  -1.79817  -1.72690  -1.71606
 Alpha  occ. eigenvalues --   -1.70049  -1.67389  -1.61664  -1.60501  -1.59975
 Alpha  occ. eigenvalues --   -1.54938  -1.52056  -1.48906  -1.48386  -1.47405
 Alpha  occ. eigenvalues --   -1.46522  -1.44968  -1.40521  -1.39865  -1.39645
 Alpha  occ. eigenvalues --   -1.36326  -1.32977  -1.32738  -1.31281  -1.28689
 Alpha  occ. eigenvalues --   -1.28235  -1.27936  -1.23813  -1.20505  -1.18715
 Alpha  occ. eigenvalues --   -1.17461  -1.15797  -1.14690  -1.13871  -1.13083
 Alpha  occ. eigenvalues --   -1.12746  -1.09723  -1.09639  -1.04929  -1.04032
 Alpha  occ. eigenvalues --   -1.01725  -1.00637  -0.98461  -0.97304  -0.96451
 Alpha  occ. eigenvalues --   -0.96418  -0.94530  -0.94211  -0.93139  -0.92874
 Alpha  occ. eigenvalues --   -0.90988  -0.90505  -0.89313  -0.88170  -0.87638
 Alpha  occ. eigenvalues --   -0.86204  -0.85134  -0.83785  -0.82818  -0.80916
 Alpha  occ. eigenvalues --   -0.80193  -0.78294  -0.77318  -0.76801  -0.76494
 Alpha  occ. eigenvalues --   -0.75832  -0.75498  -0.74334  -0.73910  -0.73668
 Alpha  occ. eigenvalues --   -0.72903  -0.72783  -0.72317  -0.71954  -0.71130
 Alpha  occ. eigenvalues --   -0.70855  -0.69151  -0.68593  -0.67871  -0.67716
 Alpha  occ. eigenvalues --   -0.67146  -0.66949  -0.66575  -0.66369  -0.65898
 Alpha  occ. eigenvalues --   -0.65713  -0.65561  -0.64438  -0.63733  -0.63492
 Alpha  occ. eigenvalues --   -0.63353  -0.63205  -0.62780  -0.62418  -0.62096
 Alpha  occ. eigenvalues --   -0.62004  -0.61731  -0.60979  -0.60783  -0.60136
 Alpha  occ. eigenvalues --   -0.59866  -0.58961  -0.58672  -0.58523  -0.58233
 Alpha  occ. eigenvalues --   -0.57883  -0.57587  -0.57283  -0.56842  -0.56526
 Alpha  occ. eigenvalues --   -0.55995  -0.55666  -0.55318  -0.54918  -0.54800
 Alpha  occ. eigenvalues --   -0.54100  -0.53783  -0.53562  -0.53200  -0.52957
 Alpha  occ. eigenvalues --   -0.52781  -0.52417  -0.52296  -0.52105  -0.51868
 Alpha  occ. eigenvalues --   -0.51524  -0.51227  -0.51024  -0.50646  -0.50378
 Alpha  occ. eigenvalues --   -0.50157  -0.49771  -0.49708  -0.49412  -0.49146
 Alpha  occ. eigenvalues --   -0.49048  -0.48695  -0.48132  -0.47833  -0.47659
 Alpha  occ. eigenvalues --   -0.47361  -0.47148  -0.46910  -0.46880  -0.46556
 Alpha  occ. eigenvalues --   -0.46471  -0.46331  -0.46178  -0.45779  -0.45485
 Alpha  occ. eigenvalues --   -0.45403  -0.45092  -0.44581  -0.44467  -0.44339
 Alpha  occ. eigenvalues --   -0.43380  -0.43189  -0.42313  -0.42163  -0.41954
 Alpha  occ. eigenvalues --   -0.41790  -0.41628  -0.40846  -0.39580  -0.39108
 Alpha  occ. eigenvalues --   -0.38317  -0.37106  -0.35917  -0.35259  -0.34064
 Alpha  occ. eigenvalues --   -0.33659  -0.33058  -0.32381  -0.32183  -0.27297
 Alpha  occ. eigenvalues --   -0.22189
 Alpha virt. eigenvalues --   -0.08676  -0.02302  -0.00202   0.01298   0.01682
 Alpha virt. eigenvalues --    0.01788   0.02766   0.03275   0.04368   0.04922
 Alpha virt. eigenvalues --    0.06218   0.06479   0.07034   0.07914   0.07985

 Mulliken charges:
               1
     1  Mg   0.435077
     2  C   -0.022862
     3  C   -0.075711
     4  C   -0.101958
     5  C   -0.047417
     6  N   -0.297731
     7  C    0.095653
     8  C    0.011335
     9  C   -0.000466
    10  C    0.166247
    11  C   -0.059101
    12  C   -0.015202
    13  C    0.007548
    14  C    0.455307
    15  O   -0.492810
    16  O   -0.280254
    17  N   -0.329709
    18  C    0.127029
    19  C    0.055308
    20  C   -0.064075
    21  C    0.166730
    22  C   -0.040450
    23  C    0.331912
    24  O   -0.524158
    25  C   -0.028897
    26  N   -0.252465
    27  C    0.157366
    28  C   -0.004584
    29  C   -0.008970
    30  C    0.077609
    31  C   -0.052501
    32  C   -0.029911
    33  C   -0.059184
    34  N   -0.318607
    35  C    0.066692
    36  C    0.006371
    37  C   -0.040160
    38  C    0.093785
    39  C   -0.045589
    40  C    0.333564
    41  O   -0.522992
    42  C    0.050882
    43  C    0.491308
    44  O   -0.507735
    45  O   -0.285136
    46  C    0.076292
    47  C    0.108760
    48  C   -0.079064
    49  C   -0.009624
    50  C   -0.037939
    51  C   -0.038561
    52  C   -0.032562
    53  C   -0.046354
    54  C   -0.013905
    55  C   -0.060589
    56  C   -0.028717
    57  C   -0.041616
    58  C   -0.033430
    59  C   -0.013541
    60  C   -0.059207
    61  C   -0.039531
    62  C   -0.037254
    63  C   -0.040978
    64  C   -0.001810
    65  C   -0.052999
    66  C   -0.063216
    67  H    0.030920
    68  H    0.023493
    69  H    0.031138
    70  H    0.038641
    71  H    0.026219
    72  H    0.029036
    73  H    0.041889
    74  H    0.015689
    75  H    0.024871
    76  H    0.025552
    77  H    0.034674
    78  H    0.038052
    79  H    0.034493
    80  H    0.017445
    81  H    0.052027
    82  H    0.032973
    83  H    0.042743
    84  H    0.052607
    85  H    0.026384
    86  H    0.038969
    87  H    0.020087
    88  H    0.029604
    89  H    0.021286
    90  H    0.017618
    91  H    0.017458
    92  H    0.018297
    93  H    0.028151
    94  H    0.018568
    95  H    0.045722
    96  H    0.012150
    97  H    0.036843
    98  H    0.054740
    99  H    0.038326
   100  H    0.050959
   101  H    0.022999
   102  H    0.052673
   103  H    0.047670
   104  H    0.034306
   105  H    0.014976
   106  H    0.026644
   107  H    0.035945
   108  H    0.026259
   109  H    0.004646
   110  H    0.015718
   111  H    0.032032
   112  H    0.011803
   113  H    0.027262
   114  H    0.032786
   115  H    0.005826
   116  H    0.018314
   117  H    0.019031
   118  H    0.019205
   119  H    0.019984
   120  H    0.015517
   121  H    0.016223
   122  H    0.028543
   123  H    0.022597
   124  H    0.019534
   125  H    0.020911
   126  H    0.011248
   127  H    0.021372
   128  H    0.008330
   129  H    0.020346
   130  H    0.015376
   131  H    0.030352
   132  H    0.021880
   133  H    0.007073
   134  H    0.019356
   135  H    0.007057
   136  H    0.029039
   137  H    0.020081
   138  H    0.009245
   139  H    0.015849
   140  H    0.029124
 Sum of Mulliken charges =  -0.00000

 Dipole moment (field-independent basis, Debye):
    X=              1.0183    Y=             -5.8594    Z=             -3.5982  Tot=              6.9510
 N-N= 4.357228598596D+03 E-N= 0.000000000000D+00  KE=-9.388516518648D+03
 Leave Link  601 at Thu May  5 01:56:58 2022, MaxMem=  6710886400 cpu:               1.3 elap:               0.1
 (Enter /sw/apps/gaussian-16.0/g16/l9999.exe)
 1\1\GINC-BP1-COMPUTE181\SP\RZINDO CIS\STO-3G\C55H74Mg1N4O6\OF15641\05-
 May-2022\0\\#p ZINDO=(nstates=5)\\step_501_chromophore_8 ZINDO\\0,1\Mg
 ,0,44.018,2.918,47.661\C,0,42.06,5.715,47.019\C,0,41.006,1.016,47.312\
 C,0,45.799,0.157,47.762\C,0,46.879,4.917,47.241\N,0,41.832,3.33,47.098
 \C,0,41.294,4.592,46.981\C,0,39.795,4.5,46.683\C,0,39.487,3.026,47.066
 \C,0,40.847,2.382,47.129\C,0,38.692,2.744,48.401\C,0,39.448,4.839,45.2
 24\C,0,38.003,4.934,44.914\C,0,37.595,5.768,43.64\O,0,36.561,6.393,43.

 Normal termination of Gaussian 16 at Thu May  5 01:56:58 2022.
