 Gaussian 16, Revision A.03,
 Gaussian 16:  ES64L-G16RevA.03 25-Dec-2016

 ------------------------------
 #p blyp/Def2SVP td=(nstates=5)
 ------------------------------

 ---------------------------------------------------
 step_1201_chromophore_16 TDDFT with blyp functional
 ---------------------------------------------------
 Symbolic Z-matrix:
 Charge =  0 Multiplicity = 1

                         Standard orientation:
 ---------------------------------------------------------------------
 Center     Atomic      Atomic             Coordinates (Angstroms)
 Number     Number       Type             X           Y           Z
 ---------------------------------------------------------------------
      1         12           0        6.349915    0.624733    0.072120
      2          6           0        3.870931   -2.040748    0.050790
      3          6           0        3.867495    2.636539   -1.201273
      4          6           0        8.528277    2.917122    0.098693
      5          6           0        8.562902   -1.748135    1.338244
      6          7           0        4.109561    0.211736   -0.685290
      7          6           0        3.329006   -0.906680   -0.539215
      8          6           0        1.864363   -0.628365   -0.998807
      9          6           0        2.009820    0.857864   -1.557547
     10          6           0        3.401795    1.281113   -1.131556
     11          6           0        1.759444    1.120406   -3.085149
     12          6           0        0.723500   -0.766578    0.014602
     13          6           0       -0.637460   -1.008934   -0.581990
     14          6           0       -1.635316   -1.855177    0.141237
     15          8           0       -1.580014   -2.273625    1.293365
     16          8           0       -2.659377   -2.118675   -0.696649
     17          7           0        6.233701    2.562598   -0.495960
     18          6           0        5.159798    3.227936   -0.967248
     19          6           0        5.584283    4.648697   -1.188221
     20          6           0        6.914172    4.755017   -0.779187
     21          6           0        7.287685    3.396217   -0.393726
     22          6           0        4.625723    5.698190   -1.753991
     23          6           0        7.861224    5.941251   -0.738177
     24          8           0        9.057670    5.960964   -0.467560
     25          6           0        7.265142    7.326814   -0.980222
     26          7           0        8.465283    0.508844    0.393785
     27          6           0        9.093513    1.669812    0.479026
     28          6           0       10.476431    1.420366    1.025611
     29          6           0       10.396446   -0.049091    1.614864
     30          6           0        9.075848   -0.462520    1.117762
     31          6           0       11.642474    1.837340    0.038648
     32          6           0       10.568256   -0.271276    3.157183
     33          6           0        9.790757    0.815061    4.001911
     34          7           0        6.366505   -1.528421    0.362765
     35          6           0        7.343198   -2.321343    0.943494
     36          6           0        6.874656   -3.633768    1.018940
     37          6           0        5.477794   -3.485150    0.846421
     38          6           0        5.235061   -2.214266    0.358352
     39          6           0        7.698141   -4.784039    1.426355
     40          6           0        4.231177   -4.248070    0.980416
     41          8           0        3.972704   -5.345318    1.406534
     42          6           0        3.098678   -3.278221    0.521023
     43          6           0        2.489363   -3.963883   -0.627167
     44          8           0        3.031859   -4.207136   -1.714229
     45          8           0        1.186455   -4.306316   -0.256036
     46          6           0        0.409884   -4.966832   -1.343242
     47          6           0       -3.743575   -3.048065   -0.216015
     48          6           0       -5.016047   -2.763435   -1.009579
     49          6           0       -6.148535   -3.494951   -1.015749
     50          6           0       -6.405873   -4.761785   -0.195413
     51          6           0       -7.321888   -3.031239   -1.886300
     52          6           0       -8.194170   -1.959005   -1.162167
     53          6           0       -7.921918   -0.501991   -1.627064
     54          6           0       -9.187769    0.291256   -1.898282
     55          6           0       -9.182515    0.556470   -3.409906
     56          6           0       -9.559535    1.542247   -0.978731
     57          6           0      -10.829558    1.294534   -0.080946
     58          6           0      -12.169252    1.469891   -0.809784
     59          6           0      -13.368931    0.672744   -0.266630
     60          6           0      -13.651142   -0.489906   -1.323250
     61          6           0      -14.586807    1.639577   -0.065030
     62          6           0      -14.439448    2.662081    1.158489
     63          6           0      -15.711157    2.541105    2.013921
     64          6           0      -15.464354    3.131906    3.465794
     65          6           0      -16.799090    3.460765    4.143460
     66          6           0      -14.553456    2.038018    4.166591
     67          1           0        3.092610    3.337838   -1.516974
     68          1           0        9.217246    3.720950    0.365116
     69          1           0        9.215986   -2.436509    1.878592
     70          1           0        1.633220   -1.281923   -1.839764
     71          1           0        1.289550    1.527572   -1.087698
     72          1           0        1.636240    0.136687   -3.538096
     73          1           0        2.545438    1.607486   -3.661355
     74          1           0        0.854998    1.716414   -3.204591
     75          1           0        0.501913    0.206836    0.451359
     76          1           0        0.868877   -1.419552    0.875391
     77          1           0       -0.462666   -1.423177   -1.575712
     78          1           0       -1.087931   -0.045211   -0.821352
     79          1           0        4.412508    6.486255   -1.032030
     80          1           0        3.676346    5.283224   -2.093125
     81          1           0        5.132326    6.196983   -2.579565
     82          1           0        8.027056    8.093861   -0.843152
     83          1           0        6.499177    7.484083   -0.220713
     84          1           0        6.885589    7.244541   -1.999336
     85          1           0       10.641972    2.070702    1.884566
     86          1           0       11.055257   -0.732513    1.080450
     87          1           0       11.298214    1.659306   -0.980090
     88          1           0       12.418743    1.199676    0.463187
     89          1           0       11.840750    2.895775    0.207875
     90          1           0       11.591310   -0.062180    3.468040
     91          1           0       10.077162   -1.171865    3.525413
     92          1           0       10.404818    1.715222    3.972257
     93          1           0        9.683967    0.480425    5.033658
     94          1           0        8.819575    1.013324    3.549063
     95          1           0        8.770053   -4.718129    1.236808
     96          1           0        7.246659   -5.638493    0.921659
     97          1           0        7.536656   -4.827130    2.503622
     98          1           0        2.375694   -3.006202    1.290441
     99          1           0        0.142177   -4.293767   -2.157881
    100          1           0       -0.432336   -5.487386   -0.887352
    101          1           0        1.057025   -5.748836   -1.740816
    102          1           0       -3.923312   -2.940064    0.853053
    103          1           0       -3.376597   -4.052477   -0.428124
    104          1           0       -5.031727   -1.915610   -1.694830
    105          1           0       -7.381279   -4.685894    0.284336
    106          1           0       -5.651526   -4.990997    0.558273
    107          1           0       -6.450273   -5.563982   -0.931415
    108          1           0       -7.949176   -3.866520   -2.197614
    109          1           0       -6.927699   -2.660562   -2.832188
    110          1           0       -7.998663   -1.969417   -0.090079
    111          1           0       -9.224383   -2.285549   -1.308949
    112          1           0       -7.221930   -0.547070   -2.461069
    113          1           0       -7.393968   -0.087342   -0.768852
    114          1           0      -10.027392   -0.391824   -1.770672
    115          1           0       -8.247820    0.942919   -3.817369
    116          1           0       -9.929889    1.256649   -3.784547
    117          1           0       -9.435393   -0.387109   -3.893502
    118          1           0       -9.600681    2.366254   -1.691060
    119          1           0       -8.692942    1.560094   -0.317521
    120          1           0      -10.731183    2.039604    0.709500
    121          1           0      -10.891449    0.301138    0.363836
    122          1           0      -12.014168    1.224309   -1.859988
    123          1           0      -12.399822    2.535439   -0.820439
    124          1           0      -13.188552    0.170777    0.682826
    125          1           0      -13.916810   -1.332839   -0.685637
    126          1           0      -12.857466   -0.776325   -2.012536
    127          1           0      -14.475408   -0.199847   -1.974520
    128          1           0      -15.439312    0.966194    0.017970
    129          1           0      -14.846757    2.164344   -0.983345
    130          1           0      -14.440013    3.629390    0.655460
    131          1           0      -13.525278    2.391391    1.687153
    132          1           0      -16.076202    1.517590    2.104839
    133          1           0      -16.414819    3.300213    1.672307
    134          1           0      -14.960921    4.096456    3.399634
    135          1           0      -16.496082    3.762168    5.146095
    136          1           0      -17.412693    2.587639    4.366979
    137          1           0      -17.470648    4.145008    3.625818
    138          1           0      -14.887439    1.792194    5.174486
    139          1           0      -13.575476    2.509907    4.265295
    140          1           0      -14.416388    1.148915    3.550979
 ---------------------------------------------------------------------

 SCF Done:  E(RB-LYP) =  -3007.38193185     A.U. after   21 cycles

 Excitation energies and oscillator strengths:

 Excited State   1:      Singlet-A      1.8476 eV  671.05 nm  f=0.2916  <S**2>=0.000
     245 -> 248       -0.18904
     246 -> 247        0.67985
     246 <- 247       -0.13766
 This state for optimization and/or second-order correction.
 Total Energy, E(TD-HF/TD-DFT) =  -3007.31403298
 Copying the excited state density for this state as the 1-particle RhoCI density.

 Excited State   2:      Singlet-A      1.9514 eV  635.37 nm  f=0.0023  <S**2>=0.000
     244 -> 247        0.69431
     245 -> 247        0.11113

 Excited State   3:      Singlet-A      1.9826 eV  625.36 nm  f=0.0546  <S**2>=0.000
     243 -> 247       -0.44692
     244 -> 247       -0.12388
     245 -> 247        0.49674
     246 -> 248        0.15148

 Excited State   4:      Singlet-A      2.0579 eV  602.49 nm  f=0.0371  <S**2>=0.000
     243 -> 247        0.53793
     245 -> 247        0.41227
     246 -> 248        0.15501

 Excited State   5:      Singlet-A      2.4232 eV  511.65 nm  f=0.0000  <S**2>=0.000
     241 -> 247        0.70709

 The electronic state is 1-A.
 Alpha  occ. eigenvalues --  -46.28227 -18.81959 -18.81640 -18.76503 -18.76454
 Alpha  occ. eigenvalues --  -18.75954 -18.75342 -14.02923 -14.02568 -14.01591
 Alpha  occ. eigenvalues --  -13.99949 -10.03957 -10.03388 -10.00250  -9.99091
 Alpha  occ. eigenvalues --   -9.98610  -9.97230  -9.96686  -9.96419  -9.96325
 Alpha  occ. eigenvalues --   -9.96283  -9.96236  -9.95949  -9.94855  -9.94714
 Alpha  occ. eigenvalues --   -9.94309  -9.94244  -9.93780  -9.93706  -9.93703
 Alpha  occ. eigenvalues --   -9.93582  -9.93461  -9.93385  -9.93317  -9.93312
 Alpha  occ. eigenvalues --   -9.93275  -9.93091  -9.92965  -9.92722  -9.92660
 Alpha  occ. eigenvalues --   -9.92615  -9.92541  -9.92533  -9.92314  -9.92221
 Alpha  occ. eigenvalues --   -9.92167  -9.92166  -9.92089  -9.92028  -9.91947
 Alpha  occ. eigenvalues --   -9.91863  -9.91785  -9.91753  -9.91672  -9.91629
 Alpha  occ. eigenvalues --   -9.91609  -9.91545  -9.91163  -9.91158  -9.91074
 Alpha  occ. eigenvalues --   -9.91065  -9.91043  -9.90806  -9.90802  -9.90500
 Alpha  occ. eigenvalues --   -9.90366  -2.92668  -1.73097  -1.72578  -1.72357
 Alpha  occ. eigenvalues --   -0.97695  -0.95985  -0.91811  -0.91662  -0.89193
 Alpha  occ. eigenvalues --   -0.88678  -0.87419  -0.86624  -0.86354  -0.85092
 Alpha  occ. eigenvalues --   -0.75276  -0.73694  -0.73259  -0.72561  -0.72541
 Alpha  occ. eigenvalues --   -0.71801  -0.71227  -0.70895  -0.70681  -0.70561
 Alpha  occ. eigenvalues --   -0.70171  -0.69226  -0.67900  -0.67267  -0.67076
 Alpha  occ. eigenvalues --   -0.66312  -0.65766  -0.65079  -0.64912  -0.64298
 Alpha  occ. eigenvalues --   -0.64145  -0.62828  -0.62485  -0.62258  -0.60577
 Alpha  occ. eigenvalues --   -0.60436  -0.60387  -0.59964  -0.59397  -0.58696
 Alpha  occ. eigenvalues --   -0.58422  -0.57737  -0.56816  -0.55542  -0.55108
 Alpha  occ. eigenvalues --   -0.53707  -0.53430  -0.52909  -0.52389  -0.51654
 Alpha  occ. eigenvalues --   -0.51413  -0.50892  -0.50525  -0.50276  -0.49329
 Alpha  occ. eigenvalues --   -0.49272  -0.49159  -0.48709  -0.47748  -0.46989
 Alpha  occ. eigenvalues --   -0.46659  -0.45846  -0.45615  -0.45282  -0.44455
 Alpha  occ. eigenvalues --   -0.44134  -0.43804  -0.43092  -0.42871  -0.42672
 Alpha  occ. eigenvalues --   -0.41788  -0.41752  -0.41629  -0.41379  -0.41055
 Alpha  occ. eigenvalues --   -0.40863  -0.40594  -0.40257  -0.40177  -0.40092
 Alpha  occ. eigenvalues --   -0.40063  -0.39552  -0.39437  -0.39253  -0.39015
 Alpha  occ. eigenvalues --   -0.38885  -0.38641  -0.38523  -0.38405  -0.38310
 Alpha  occ. eigenvalues --   -0.37990  -0.37974  -0.37864  -0.37590  -0.37299
 Alpha  occ. eigenvalues --   -0.37213  -0.36890  -0.36734  -0.36635  -0.36418
 Alpha  occ. eigenvalues --   -0.36249  -0.36235  -0.36051  -0.35878  -0.35541
 Alpha  occ. eigenvalues --   -0.35476  -0.35151  -0.34932  -0.34777  -0.34637
 Alpha  occ. eigenvalues --   -0.34510  -0.34320  -0.34141  -0.34047  -0.33946
 Alpha  occ. eigenvalues --   -0.33691  -0.33608  -0.33429  -0.33269  -0.32960
 Alpha  occ. eigenvalues --   -0.32811  -0.32760  -0.32550  -0.32463  -0.32321
 Alpha  occ. eigenvalues --   -0.32171  -0.31994  -0.31923  -0.31869  -0.31773
 Alpha  occ. eigenvalues --   -0.31487  -0.31226  -0.30925  -0.30814  -0.30779
 Alpha  occ. eigenvalues --   -0.30689  -0.30585  -0.30365  -0.30108  -0.29844
 Alpha  occ. eigenvalues --   -0.29549  -0.29410  -0.29241  -0.29140  -0.29054
 Alpha  occ. eigenvalues --   -0.28784  -0.28700  -0.28409  -0.28234  -0.27824
 Alpha  occ. eigenvalues --   -0.27801  -0.27774  -0.27216  -0.26683  -0.26371
 Alpha  occ. eigenvalues --   -0.26027  -0.25937  -0.25496  -0.25290  -0.25135
 Alpha  occ. eigenvalues --   -0.24965  -0.24676  -0.24346  -0.23704  -0.23445
 Alpha  occ. eigenvalues --   -0.22835  -0.22269  -0.21857  -0.21742  -0.21287
 Alpha  occ. eigenvalues --   -0.20145  -0.19699  -0.18591  -0.18316  -0.16868
 Alpha  occ. eigenvalues --   -0.15743
 Alpha virt. eigenvalues --   -0.11240  -0.06703  -0.05832  -0.04366  -0.02785
 Alpha virt. eigenvalues --   -0.02382  -0.02183  -0.01507  -0.01173   0.00223
 Alpha virt. eigenvalues --    0.01419   0.01543   0.02017   0.02557   0.02796

 Mulliken charges:
               1
     1  Mg   0.664059
     2  C   -0.090474
     3  C   -0.050069
     4  C   -0.020418
     5  C   -0.086898
     6  N   -0.171392
     7  C   -0.084184
     8  C    0.065189
     9  C   -0.029072
    10  C    0.007758
    11  C    0.115950
    12  C    0.145051
    13  C    0.064465
    14  C    0.098316
    15  O   -0.193040
    16  O   -0.281317
    17  N   -0.288854
    18  C    0.112024
    19  C   -0.145429
    20  C    0.065558
    21  C    0.082718
    22  C    0.172144
    23  C   -0.087262
    24  O   -0.156246
    25  C    0.125361
    26  N   -0.203887
    27  C   -0.019336
    28  C    0.006169
    29  C    0.070270
    30  C   -0.013346
    31  C    0.143660
    32  C    0.094054
    33  C    0.013575
    34  N   -0.212277
    35  C    0.123973
    36  C   -0.189775
    37  C    0.042894
    38  C    0.154374
    39  C    0.181743
    40  C   -0.058618
    41  O   -0.108556
    42  C    0.096406
    43  C    0.119985
    44  O   -0.201012
    45  O   -0.285972
    46  C    0.217393
    47  C    0.313043
    48  C   -0.095872
    49  C   -0.171803
    50  C    0.149160
    51  C    0.109615
    52  C    0.058085
    53  C    0.127924
    54  C   -0.087793
    55  C    0.079141
    56  C    0.144130
    57  C    0.057856
    58  C    0.118270
    59  C   -0.087998
    60  C    0.085814
    61  C    0.065949
    62  C    0.101882
    63  C    0.074263
    64  C   -0.103707
    65  C    0.110210
    66  C    0.097938
    67  H   -0.073894
    68  H   -0.051414
    69  H   -0.067901
    70  H   -0.011408
    71  H   -0.025174
    72  H   -0.012310
    73  H    0.000767
    74  H   -0.009568
    75  H   -0.032850
    76  H   -0.001748
    77  H   -0.011781
    78  H   -0.001123
    79  H    0.002670
    80  H   -0.009862
    81  H    0.000151
    82  H   -0.005247
    83  H    0.008126
    84  H    0.003178
    85  H   -0.034331
    86  H   -0.026474
    87  H    0.008589
    88  H   -0.002950
    89  H    0.011474
    90  H   -0.013893
    91  H   -0.002528
    92  H   -0.001421
    93  H   -0.004022
    94  H    0.003128
    95  H   -0.006083
    96  H    0.015343
    97  H    0.008150
    98  H    0.013946
    99  H    0.016611
   100  H    0.017593
   101  H    0.014318
   102  H    0.023466
   103  H    0.008312
   104  H   -0.034866
   105  H   -0.003425
   106  H   -0.007854
   107  H    0.002002
   108  H   -0.044125
   109  H   -0.023860
   110  H   -0.021131
   111  H   -0.028042
   112  H   -0.025744
   113  H   -0.038874
   114  H   -0.029896
   115  H   -0.015177
   116  H   -0.028626
   117  H   -0.021423
   118  H   -0.030288
   119  H   -0.044496
   120  H   -0.024886
   121  H   -0.025877
   122  H   -0.037798
   123  H   -0.042580
   124  H   -0.031734
   125  H   -0.015172
   126  H   -0.006292
   127  H   -0.017336
   128  H   -0.045018
   129  H   -0.039134
   130  H   -0.020987
   131  H   -0.014699
   132  H   -0.013520
   133  H   -0.039675
   134  H   -0.032497
   135  H   -0.022745
   136  H   -0.031368
   137  H   -0.006756
   138  H   -0.019485
   139  H   -0.012960
   140  H   -0.005254
 Sum of Mulliken charges =  -0.00000

 Dipole moment (field-independent basis, Debye):
    X=             -3.4248    Y=              3.3283    Z=             -0.4785  Tot=              4.7995
 Quadrupole moment (field-independent basis, Debye-Ang):
   XX=           -379.5223   YY=           -421.3944   ZZ=           -405.4756
   XY=              4.9906   XZ=             21.7308   YZ=              3.0115

 Normal termination of Gaussian 16 at Wed Apr 27 14:25:21 2022.
