 Gaussian 16, Revision A.03,
 Gaussian 16:  ES64L-G16RevA.03 25-Dec-2016

 -----------------------------------
 #p cam-b3lyp/Def2SVP td=(nstates=5)
 -----------------------------------

 --------------------------------------------------------
 step_1201_chromophore_16 TDDFT with cam-b3lyp functional
 --------------------------------------------------------
 Symbolic Z-matrix:
 Charge =  0 Multiplicity = 1

                         Standard orientation:
 ---------------------------------------------------------------------
 Center     Atomic      Atomic             Coordinates (Angstroms)
 Number     Number       Type             X           Y           Z
 ---------------------------------------------------------------------
      1         12           0        6.349915    0.624733    0.072120
      2          6           0        3.870931   -2.040748    0.050790
      3          6           0        3.867495    2.636539   -1.201273
      4          6           0        8.528277    2.917122    0.098693
      5          6           0        8.562902   -1.748135    1.338244
      6          7           0        4.109561    0.211736   -0.685290
      7          6           0        3.329006   -0.906680   -0.539215
      8          6           0        1.864363   -0.628365   -0.998807
      9          6           0        2.009820    0.857864   -1.557547
     10          6           0        3.401795    1.281113   -1.131556
     11          6           0        1.759444    1.120406   -3.085149
     12          6           0        0.723500   -0.766578    0.014602
     13          6           0       -0.637460   -1.008934   -0.581990
     14          6           0       -1.635316   -1.855177    0.141237
     15          8           0       -1.580014   -2.273625    1.293365
     16          8           0       -2.659377   -2.118675   -0.696649
     17          7           0        6.233701    2.562598   -0.495960
     18          6           0        5.159798    3.227936   -0.967248
     19          6           0        5.584283    4.648697   -1.188221
     20          6           0        6.914172    4.755017   -0.779187
     21          6           0        7.287685    3.396217   -0.393726
     22          6           0        4.625723    5.698190   -1.753991
     23          6           0        7.861224    5.941251   -0.738177
     24          8           0        9.057670    5.960964   -0.467560
     25          6           0        7.265142    7.326814   -0.980222
     26          7           0        8.465283    0.508844    0.393785
     27          6           0        9.093513    1.669812    0.479026
     28          6           0       10.476431    1.420366    1.025611
     29          6           0       10.396446   -0.049091    1.614864
     30          6           0        9.075848   -0.462520    1.117762
     31          6           0       11.642474    1.837340    0.038648
     32          6           0       10.568256   -0.271276    3.157183
     33          6           0        9.790757    0.815061    4.001911
     34          7           0        6.366505   -1.528421    0.362765
     35          6           0        7.343198   -2.321343    0.943494
     36          6           0        6.874656   -3.633768    1.018940
     37          6           0        5.477794   -3.485150    0.846421
     38          6           0        5.235061   -2.214266    0.358352
     39          6           0        7.698141   -4.784039    1.426355
     40          6           0        4.231177   -4.248070    0.980416
     41          8           0        3.972704   -5.345318    1.406534
     42          6           0        3.098678   -3.278221    0.521023
     43          6           0        2.489363   -3.963883   -0.627167
     44          8           0        3.031859   -4.207136   -1.714229
     45          8           0        1.186455   -4.306316   -0.256036
     46          6           0        0.409884   -4.966832   -1.343242
     47          6           0       -3.743575   -3.048065   -0.216015
     48          6           0       -5.016047   -2.763435   -1.009579
     49          6           0       -6.148535   -3.494951   -1.015749
     50          6           0       -6.405873   -4.761785   -0.195413
     51          6           0       -7.321888   -3.031239   -1.886300
     52          6           0       -8.194170   -1.959005   -1.162167
     53          6           0       -7.921918   -0.501991   -1.627064
     54          6           0       -9.187769    0.291256   -1.898282
     55          6           0       -9.182515    0.556470   -3.409906
     56          6           0       -9.559535    1.542247   -0.978731
     57          6           0      -10.829558    1.294534   -0.080946
     58          6           0      -12.169252    1.469891   -0.809784
     59          6           0      -13.368931    0.672744   -0.266630
     60          6           0      -13.651142   -0.489906   -1.323250
     61          6           0      -14.586807    1.639577   -0.065030
     62          6           0      -14.439448    2.662081    1.158489
     63          6           0      -15.711157    2.541105    2.013921
     64          6           0      -15.464354    3.131906    3.465794
     65          6           0      -16.799090    3.460765    4.143460
     66          6           0      -14.553456    2.038018    4.166591
     67          1           0        3.092610    3.337838   -1.516974
     68          1           0        9.217246    3.720950    0.365116
     69          1           0        9.215986   -2.436509    1.878592
     70          1           0        1.633220   -1.281923   -1.839764
     71          1           0        1.289550    1.527572   -1.087698
     72          1           0        1.636240    0.136687   -3.538096
     73          1           0        2.545438    1.607486   -3.661355
     74          1           0        0.854998    1.716414   -3.204591
     75          1           0        0.501913    0.206836    0.451359
     76          1           0        0.868877   -1.419552    0.875391
     77          1           0       -0.462666   -1.423177   -1.575712
     78          1           0       -1.087931   -0.045211   -0.821352
     79          1           0        4.412508    6.486255   -1.032030
     80          1           0        3.676346    5.283224   -2.093125
     81          1           0        5.132326    6.196983   -2.579565
     82          1           0        8.027056    8.093861   -0.843152
     83          1           0        6.499177    7.484083   -0.220713
     84          1           0        6.885589    7.244541   -1.999336
     85          1           0       10.641972    2.070702    1.884566
     86          1           0       11.055257   -0.732513    1.080450
     87          1           0       11.298214    1.659306   -0.980090
     88          1           0       12.418743    1.199676    0.463187
     89          1           0       11.840750    2.895775    0.207875
     90          1           0       11.591310   -0.062180    3.468040
     91          1           0       10.077162   -1.171865    3.525413
     92          1           0       10.404818    1.715222    3.972257
     93          1           0        9.683967    0.480425    5.033658
     94          1           0        8.819575    1.013324    3.549063
     95          1           0        8.770053   -4.718129    1.236808
     96          1           0        7.246659   -5.638493    0.921659
     97          1           0        7.536656   -4.827130    2.503622
     98          1           0        2.375694   -3.006202    1.290441
     99          1           0        0.142177   -4.293767   -2.157881
    100          1           0       -0.432336   -5.487386   -0.887352
    101          1           0        1.057025   -5.748836   -1.740816
    102          1           0       -3.923312   -2.940064    0.853053
    103          1           0       -3.376597   -4.052477   -0.428124
    104          1           0       -5.031727   -1.915610   -1.694830
    105          1           0       -7.381279   -4.685894    0.284336
    106          1           0       -5.651526   -4.990997    0.558273
    107          1           0       -6.450273   -5.563982   -0.931415
    108          1           0       -7.949176   -3.866520   -2.197614
    109          1           0       -6.927699   -2.660562   -2.832188
    110          1           0       -7.998663   -1.969417   -0.090079
    111          1           0       -9.224383   -2.285549   -1.308949
    112          1           0       -7.221930   -0.547070   -2.461069
    113          1           0       -7.393968   -0.087342   -0.768852
    114          1           0      -10.027392   -0.391824   -1.770672
    115          1           0       -8.247820    0.942919   -3.817369
    116          1           0       -9.929889    1.256649   -3.784547
    117          1           0       -9.435393   -0.387109   -3.893502
    118          1           0       -9.600681    2.366254   -1.691060
    119          1           0       -8.692942    1.560094   -0.317521
    120          1           0      -10.731183    2.039604    0.709500
    121          1           0      -10.891449    0.301138    0.363836
    122          1           0      -12.014168    1.224309   -1.859988
    123          1           0      -12.399822    2.535439   -0.820439
    124          1           0      -13.188552    0.170777    0.682826
    125          1           0      -13.916810   -1.332839   -0.685637
    126          1           0      -12.857466   -0.776325   -2.012536
    127          1           0      -14.475408   -0.199847   -1.974520
    128          1           0      -15.439312    0.966194    0.017970
    129          1           0      -14.846757    2.164344   -0.983345
    130          1           0      -14.440013    3.629390    0.655460
    131          1           0      -13.525278    2.391391    1.687153
    132          1           0      -16.076202    1.517590    2.104839
    133          1           0      -16.414819    3.300213    1.672307
    134          1           0      -14.960921    4.096456    3.399634
    135          1           0      -16.496082    3.762168    5.146095
    136          1           0      -17.412693    2.587639    4.366979
    137          1           0      -17.470648    4.145008    3.625818
    138          1           0      -14.887439    1.792194    5.174486
    139          1           0      -13.575476    2.509907    4.265295
    140          1           0      -14.416388    1.148915    3.550979
 ---------------------------------------------------------------------

 SCF Done:  E(RCAM-B3LYP) =  -3007.17504212     A.U. after   19 cycles

 Excitation energies and oscillator strengths:

 Excited State   1:      Singlet-A      1.7625 eV  703.45 nm  f=0.3774  <S**2>=0.000
     245 -> 248        0.19189
     246 -> 247        0.68157
     245 <- 248        0.10805
 This state for optimization and/or second-order correction.
 Total Energy, E(TD-HF/TD-DFT) =  -3007.11027067
 Copying the excited state density for this state as the 1-particle RhoCI density.

 Excited State   2:      Singlet-A      2.2220 eV  557.99 nm  f=0.1192  <S**2>=0.000
     245 -> 247        0.64466
     246 -> 248       -0.27906

 Excited State   3:      Singlet-A      3.3205 eV  373.39 nm  f=0.0044  <S**2>=0.000
     244 -> 247        0.68605

 Excited State   4:      Singlet-A      3.5709 eV  347.21 nm  f=0.5649  <S**2>=0.000
     239 -> 247        0.11706
     240 -> 247       -0.17506
     240 -> 249        0.13646
     241 -> 247        0.17041
     245 -> 247        0.23964
     246 -> 248        0.56239

 Excited State   5:      Singlet-A      3.5927 eV  345.10 nm  f=0.0100  <S**2>=0.000
     242 -> 247        0.59172
     242 -> 249        0.24024
     242 -> 251        0.23698

 The electronic state is 1-A.
 Alpha  occ. eigenvalues --  -46.89861 -19.24836 -19.24598 -19.19601 -19.19418
 Alpha  occ. eigenvalues --  -19.19366 -19.18321 -14.41822 -14.41362 -14.40202
 Alpha  occ. eigenvalues --  -14.38108 -10.39196 -10.38918 -10.35704 -10.34192
 Alpha  occ. eigenvalues --  -10.32756 -10.31350 -10.31274 -10.31140 -10.30934
 Alpha  occ. eigenvalues --  -10.30920 -10.30607 -10.30065 -10.29941 -10.28804
 Alpha  occ. eigenvalues --  -10.28319 -10.28079 -10.28051 -10.27789 -10.27750
 Alpha  occ. eigenvalues --  -10.27676 -10.27639 -10.27555 -10.27467 -10.27286
 Alpha  occ. eigenvalues --  -10.27245 -10.27164 -10.27061 -10.26510 -10.26449
 Alpha  occ. eigenvalues --  -10.26411 -10.26398 -10.26282 -10.26260 -10.26222
 Alpha  occ. eigenvalues --  -10.26061 -10.26003 -10.25929 -10.25917 -10.25885
 Alpha  occ. eigenvalues --  -10.25609 -10.25439 -10.25377 -10.25356 -10.25355
 Alpha  occ. eigenvalues --  -10.25345 -10.25214 -10.24819 -10.24798 -10.24771
 Alpha  occ. eigenvalues --  -10.24754 -10.24688 -10.24420 -10.24395 -10.24159
 Alpha  occ. eigenvalues --  -10.24114  -3.18198  -1.93104  -1.92665  -1.92480
 Alpha  occ. eigenvalues --   -1.16135  -1.14494  -1.10307  -1.10060  -1.06999
 Alpha  occ. eigenvalues --   -1.06577  -1.05199  -1.04433  -1.03822  -1.02670
 Alpha  occ. eigenvalues --   -0.92295  -0.90587  -0.90084  -0.89341  -0.89200
 Alpha  occ. eigenvalues --   -0.88497  -0.88095  -0.87696  -0.87253  -0.87108
 Alpha  occ. eigenvalues --   -0.86499  -0.85607  -0.84131  -0.83340  -0.83245
 Alpha  occ. eigenvalues --   -0.82333  -0.81861  -0.81226  -0.80796  -0.80161
 Alpha  occ. eigenvalues --   -0.79956  -0.78754  -0.78078  -0.77700  -0.75927
 Alpha  occ. eigenvalues --   -0.75782  -0.75745  -0.75202  -0.74689  -0.73876
 Alpha  occ. eigenvalues --   -0.73540  -0.72670  -0.71735  -0.70355  -0.69711
 Alpha  occ. eigenvalues --   -0.68418  -0.67984  -0.67407  -0.66785  -0.65882
 Alpha  occ. eigenvalues --   -0.65652  -0.64906  -0.64454  -0.64225  -0.63263
 Alpha  occ. eigenvalues --   -0.63224  -0.62947  -0.62607  -0.61430  -0.60804
 Alpha  occ. eigenvalues --   -0.60331  -0.59320  -0.59021  -0.58580  -0.57812
 Alpha  occ. eigenvalues --   -0.57653  -0.57143  -0.56492  -0.56015  -0.55582
 Alpha  occ. eigenvalues --   -0.54914  -0.54734  -0.54477  -0.54376  -0.53986
 Alpha  occ. eigenvalues --   -0.53685  -0.53409  -0.53288  -0.53020  -0.52716
 Alpha  occ. eigenvalues --   -0.52582  -0.52514  -0.52236  -0.51978  -0.51831
 Alpha  occ. eigenvalues --   -0.51521  -0.51223  -0.50898  -0.50808  -0.50668
 Alpha  occ. eigenvalues --   -0.50613  -0.50222  -0.50154  -0.49830  -0.49579
 Alpha  occ. eigenvalues --   -0.49385  -0.49284  -0.49209  -0.49173  -0.48784
 Alpha  occ. eigenvalues --   -0.48743  -0.48542  -0.48270  -0.48217  -0.47996
 Alpha  occ. eigenvalues --   -0.47433  -0.47330  -0.46773  -0.46656  -0.46593
 Alpha  occ. eigenvalues --   -0.46286  -0.46256  -0.45976  -0.45858  -0.45789
 Alpha  occ. eigenvalues --   -0.45426  -0.45322  -0.45155  -0.44874  -0.44747
 Alpha  occ. eigenvalues --   -0.44568  -0.44543  -0.44276  -0.44237  -0.44190
 Alpha  occ. eigenvalues --   -0.43716  -0.43628  -0.43456  -0.43307  -0.43257
 Alpha  occ. eigenvalues --   -0.43161  -0.42679  -0.42544  -0.42478  -0.42211
 Alpha  occ. eigenvalues --   -0.41927  -0.41831  -0.41805  -0.41433  -0.41245
 Alpha  occ. eigenvalues --   -0.41133  -0.40875  -0.40654  -0.40222  -0.40119
 Alpha  occ. eigenvalues --   -0.39768  -0.39705  -0.39407  -0.39215  -0.38822
 Alpha  occ. eigenvalues --   -0.38675  -0.38479  -0.38006  -0.37763  -0.37462
 Alpha  occ. eigenvalues --   -0.36916  -0.36616  -0.36514  -0.36387  -0.36140
 Alpha  occ. eigenvalues --   -0.36049  -0.35483  -0.34812  -0.34211  -0.34089
 Alpha  occ. eigenvalues --   -0.33787  -0.33757  -0.33047  -0.31914  -0.31018
 Alpha  occ. eigenvalues --   -0.30531  -0.30077  -0.29870  -0.28647  -0.23526
 Alpha  occ. eigenvalues --   -0.21069
 Alpha virt. eigenvalues --   -0.08303  -0.01468   0.00526   0.02277   0.02710
 Alpha virt. eigenvalues --    0.05213   0.05554   0.05795   0.06126   0.06597
 Alpha virt. eigenvalues --    0.07821   0.08421   0.08584   0.08765   0.09098

 Mulliken charges:
               1
     1  Mg   0.796099
     2  C   -0.113555
     3  C   -0.068014
     4  C   -0.047259
     5  C   -0.091803
     6  N   -0.238940
     7  C   -0.039674
     8  C    0.017792
     9  C   -0.079477
    10  C    0.030888
    11  C    0.057692
    12  C    0.083207
    13  C    0.000945
    14  C    0.180468
    15  O   -0.235683
    16  O   -0.346379
    17  N   -0.382029
    18  C    0.125037
    19  C   -0.149191
    20  C   -0.007473
    21  C    0.112761
    22  C    0.117965
    23  C   -0.002303
    24  O   -0.195086
    25  C    0.046432
    26  N   -0.275137
    27  C    0.006757
    28  C   -0.052663
    29  C    0.007651
    30  C    0.006904
    31  C    0.091922
    32  C    0.038525
    33  C   -0.041946
    34  N   -0.300207
    35  C    0.123232
    36  C   -0.183309
    37  C   -0.041148
    38  C    0.188876
    39  C    0.125691
    40  C    0.040526
    41  O   -0.148641
    42  C    0.017808
    43  C    0.210397
    44  O   -0.237450
    45  O   -0.348555
    46  C    0.177919
    47  C    0.287230
    48  C   -0.120474
    49  C   -0.193820
    50  C    0.088904
    51  C    0.048593
    52  C    0.008551
    53  C    0.070264
    54  C   -0.139995
    55  C    0.022820
    56  C    0.088625
    57  C    0.006723
    58  C    0.064494
    59  C   -0.142647
    60  C    0.030439
    61  C    0.019358
    62  C    0.045805
    63  C    0.016263
    64  C   -0.157578
    65  C    0.051172
    66  C    0.035291
    67  H   -0.039449
    68  H   -0.012882
    69  H   -0.032222
    70  H    0.019792
    71  H    0.008451
    72  H    0.012640
    73  H    0.027540
    74  H    0.014083
    75  H   -0.001073
    76  H    0.031320
    77  H    0.018990
    78  H    0.030082
    79  H    0.030366
    80  H    0.018981
    81  H    0.026557
    82  H    0.030904
    83  H    0.034604
    84  H    0.027299
    85  H    0.001232
    86  H    0.010462
    87  H    0.032558
    88  H    0.020119
    89  H    0.033687
    90  H    0.013713
    91  H    0.025762
    92  H    0.018582
    93  H    0.021172
    94  H    0.022848
    95  H    0.018362
    96  H    0.040443
    97  H    0.033514
    98  H    0.057570
    99  H    0.036471
   100  H    0.040706
   101  H    0.040493
   102  H    0.053051
   103  H    0.033058
   104  H   -0.000279
   105  H    0.020127
   106  H    0.016336
   107  H    0.026337
   108  H   -0.011283
   109  H    0.006410
   110  H    0.006833
   111  H    0.000077
   112  H    0.000708
   113  H   -0.008747
   114  H   -0.002809
   115  H    0.008569
   116  H   -0.004123
   117  H    0.002395
   118  H   -0.000814
   119  H   -0.013800
   120  H    0.002734
   121  H   -0.000073
   122  H   -0.011837
   123  H   -0.013231
   124  H   -0.002484
   125  H    0.008410
   126  H    0.015801
   127  H    0.006611
   128  H   -0.015583
   129  H   -0.010648
   130  H    0.007764
   131  H    0.010347
   132  H    0.013485
   133  H   -0.010871
   134  H   -0.001331
   135  H    0.001943
   136  H   -0.007066
   137  H    0.017378
   138  H    0.005989
   139  H    0.010771
   140  H    0.016584
 Sum of Mulliken charges =  -0.00000

 Dipole moment (field-independent basis, Debye):
    X=             -3.7076    Y=              4.3962    Z=             -0.7928  Tot=              5.8053
 Quadrupole moment (field-independent basis, Debye-Ang):
   XX=           -380.0313   YY=           -416.3126   ZZ=           -405.2384
   XY=             11.8883   XZ=             22.0828   YZ=              2.2180

 Normal termination of Gaussian 16 at Wed Apr 27 13:32:22 2022.
