 Gaussian 16, Revision A.03,
 Gaussian 16:  ES64L-G16RevA.03 25-Dec-2016

 ---------------------------------
 #p PBE1PBE/Def2SVP td=(nstates=5)
 ---------------------------------

 ------------------------------------------------------
 step_1201_chromophore_16 TDDFT with PBE1PBE functional
 ------------------------------------------------------
 Symbolic Z-matrix:
 Charge =  0 Multiplicity = 1

                         Standard orientation:
 ---------------------------------------------------------------------
 Center     Atomic      Atomic             Coordinates (Angstroms)
 Number     Number       Type             X           Y           Z
 ---------------------------------------------------------------------
      1         12           0        6.349915    0.624733    0.072120
      2          6           0        3.870931   -2.040748    0.050790
      3          6           0        3.867495    2.636539   -1.201273
      4          6           0        8.528277    2.917122    0.098693
      5          6           0        8.562902   -1.748135    1.338244
      6          7           0        4.109561    0.211736   -0.685290
      7          6           0        3.329006   -0.906680   -0.539215
      8          6           0        1.864363   -0.628365   -0.998807
      9          6           0        2.009820    0.857864   -1.557547
     10          6           0        3.401795    1.281113   -1.131556
     11          6           0        1.759444    1.120406   -3.085149
     12          6           0        0.723500   -0.766578    0.014602
     13          6           0       -0.637460   -1.008934   -0.581990
     14          6           0       -1.635316   -1.855177    0.141237
     15          8           0       -1.580014   -2.273625    1.293365
     16          8           0       -2.659377   -2.118675   -0.696649
     17          7           0        6.233701    2.562598   -0.495960
     18          6           0        5.159798    3.227936   -0.967248
     19          6           0        5.584283    4.648697   -1.188221
     20          6           0        6.914172    4.755017   -0.779187
     21          6           0        7.287685    3.396217   -0.393726
     22          6           0        4.625723    5.698190   -1.753991
     23          6           0        7.861224    5.941251   -0.738177
     24          8           0        9.057670    5.960964   -0.467560
     25          6           0        7.265142    7.326814   -0.980222
     26          7           0        8.465283    0.508844    0.393785
     27          6           0        9.093513    1.669812    0.479026
     28          6           0       10.476431    1.420366    1.025611
     29          6           0       10.396446   -0.049091    1.614864
     30          6           0        9.075848   -0.462520    1.117762
     31          6           0       11.642474    1.837340    0.038648
     32          6           0       10.568256   -0.271276    3.157183
     33          6           0        9.790757    0.815061    4.001911
     34          7           0        6.366505   -1.528421    0.362765
     35          6           0        7.343198   -2.321343    0.943494
     36          6           0        6.874656   -3.633768    1.018940
     37          6           0        5.477794   -3.485150    0.846421
     38          6           0        5.235061   -2.214266    0.358352
     39          6           0        7.698141   -4.784039    1.426355
     40          6           0        4.231177   -4.248070    0.980416
     41          8           0        3.972704   -5.345318    1.406534
     42          6           0        3.098678   -3.278221    0.521023
     43          6           0        2.489363   -3.963883   -0.627167
     44          8           0        3.031859   -4.207136   -1.714229
     45          8           0        1.186455   -4.306316   -0.256036
     46          6           0        0.409884   -4.966832   -1.343242
     47          6           0       -3.743575   -3.048065   -0.216015
     48          6           0       -5.016047   -2.763435   -1.009579
     49          6           0       -6.148535   -3.494951   -1.015749
     50          6           0       -6.405873   -4.761785   -0.195413
     51          6           0       -7.321888   -3.031239   -1.886300
     52          6           0       -8.194170   -1.959005   -1.162167
     53          6           0       -7.921918   -0.501991   -1.627064
     54          6           0       -9.187769    0.291256   -1.898282
     55          6           0       -9.182515    0.556470   -3.409906
     56          6           0       -9.559535    1.542247   -0.978731
     57          6           0      -10.829558    1.294534   -0.080946
     58          6           0      -12.169252    1.469891   -0.809784
     59          6           0      -13.368931    0.672744   -0.266630
     60          6           0      -13.651142   -0.489906   -1.323250
     61          6           0      -14.586807    1.639577   -0.065030
     62          6           0      -14.439448    2.662081    1.158489
     63          6           0      -15.711157    2.541105    2.013921
     64          6           0      -15.464354    3.131906    3.465794
     65          6           0      -16.799090    3.460765    4.143460
     66          6           0      -14.553456    2.038018    4.166591
     67          1           0        3.092610    3.337838   -1.516974
     68          1           0        9.217246    3.720950    0.365116
     69          1           0        9.215986   -2.436509    1.878592
     70          1           0        1.633220   -1.281923   -1.839764
     71          1           0        1.289550    1.527572   -1.087698
     72          1           0        1.636240    0.136687   -3.538096
     73          1           0        2.545438    1.607486   -3.661355
     74          1           0        0.854998    1.716414   -3.204591
     75          1           0        0.501913    0.206836    0.451359
     76          1           0        0.868877   -1.419552    0.875391
     77          1           0       -0.462666   -1.423177   -1.575712
     78          1           0       -1.087931   -0.045211   -0.821352
     79          1           0        4.412508    6.486255   -1.032030
     80          1           0        3.676346    5.283224   -2.093125
     81          1           0        5.132326    6.196983   -2.579565
     82          1           0        8.027056    8.093861   -0.843152
     83          1           0        6.499177    7.484083   -0.220713
     84          1           0        6.885589    7.244541   -1.999336
     85          1           0       10.641972    2.070702    1.884566
     86          1           0       11.055257   -0.732513    1.080450
     87          1           0       11.298214    1.659306   -0.980090
     88          1           0       12.418743    1.199676    0.463187
     89          1           0       11.840750    2.895775    0.207875
     90          1           0       11.591310   -0.062180    3.468040
     91          1           0       10.077162   -1.171865    3.525413
     92          1           0       10.404818    1.715222    3.972257
     93          1           0        9.683967    0.480425    5.033658
     94          1           0        8.819575    1.013324    3.549063
     95          1           0        8.770053   -4.718129    1.236808
     96          1           0        7.246659   -5.638493    0.921659
     97          1           0        7.536656   -4.827130    2.503622
     98          1           0        2.375694   -3.006202    1.290441
     99          1           0        0.142177   -4.293767   -2.157881
    100          1           0       -0.432336   -5.487386   -0.887352
    101          1           0        1.057025   -5.748836   -1.740816
    102          1           0       -3.923312   -2.940064    0.853053
    103          1           0       -3.376597   -4.052477   -0.428124
    104          1           0       -5.031727   -1.915610   -1.694830
    105          1           0       -7.381279   -4.685894    0.284336
    106          1           0       -5.651526   -4.990997    0.558273
    107          1           0       -6.450273   -5.563982   -0.931415
    108          1           0       -7.949176   -3.866520   -2.197614
    109          1           0       -6.927699   -2.660562   -2.832188
    110          1           0       -7.998663   -1.969417   -0.090079
    111          1           0       -9.224383   -2.285549   -1.308949
    112          1           0       -7.221930   -0.547070   -2.461069
    113          1           0       -7.393968   -0.087342   -0.768852
    114          1           0      -10.027392   -0.391824   -1.770672
    115          1           0       -8.247820    0.942919   -3.817369
    116          1           0       -9.929889    1.256649   -3.784547
    117          1           0       -9.435393   -0.387109   -3.893502
    118          1           0       -9.600681    2.366254   -1.691060
    119          1           0       -8.692942    1.560094   -0.317521
    120          1           0      -10.731183    2.039604    0.709500
    121          1           0      -10.891449    0.301138    0.363836
    122          1           0      -12.014168    1.224309   -1.859988
    123          1           0      -12.399822    2.535439   -0.820439
    124          1           0      -13.188552    0.170777    0.682826
    125          1           0      -13.916810   -1.332839   -0.685637
    126          1           0      -12.857466   -0.776325   -2.012536
    127          1           0      -14.475408   -0.199847   -1.974520
    128          1           0      -15.439312    0.966194    0.017970
    129          1           0      -14.846757    2.164344   -0.983345
    130          1           0      -14.440013    3.629390    0.655460
    131          1           0      -13.525278    2.391391    1.687153
    132          1           0      -16.076202    1.517590    2.104839
    133          1           0      -16.414819    3.300213    1.672307
    134          1           0      -14.960921    4.096456    3.399634
    135          1           0      -16.496082    3.762168    5.146095
    136          1           0      -17.412693    2.587639    4.366979
    137          1           0      -17.470648    4.145008    3.625818
    138          1           0      -14.887439    1.792194    5.174486
    139          1           0      -13.575476    2.509907    4.265295
    140          1           0      -14.416388    1.148915    3.550979
 ---------------------------------------------------------------------

 SCF Done:  E(RPBE1PBE) =  -3005.36421022     A.U. after   15 cycles

 Excitation energies and oscillator strengths:

 Excited State   1:      Singlet-A      1.9074 eV  650.01 nm  f=0.3660  <S**2>=0.000
     245 -> 248       -0.18343
     246 -> 247        0.68785
 This state for optimization and/or second-order correction.
 Total Energy, E(TD-HF/TD-DFT) =  -3005.29411401
 Copying the excited state density for this state as the 1-particle RhoCI density.

 Excited State   2:      Singlet-A      2.2307 eV  555.82 nm  f=0.1168  <S**2>=0.000
     245 -> 247        0.65552
     246 -> 248        0.25034

 Excited State   3:      Singlet-A      2.9351 eV  422.41 nm  f=0.0050  <S**2>=0.000
     242 -> 247        0.17205
     244 -> 247        0.67050

 Excited State   4:      Singlet-A      3.0492 eV  406.62 nm  f=0.0030  <S**2>=0.000
     242 -> 247        0.62059
     242 -> 249       -0.10520
     243 -> 247       -0.21956
     244 -> 247       -0.19259

 Excited State   5:      Singlet-A      3.1345 eV  395.55 nm  f=0.0011  <S**2>=0.000
     241 -> 247        0.65711
     241 -> 248       -0.11422
     241 -> 249        0.17528

 The electronic state is 1-A.
 Alpha  occ. eigenvalues --  -46.93231 -19.25546 -19.25266 -19.19854 -19.19674
 Alpha  occ. eigenvalues --  -19.19485 -19.18691 -14.41313 -14.40859 -14.39740
 Alpha  occ. eigenvalues --  -14.37883 -10.36217 -10.35959 -10.32700 -10.31485
 Alpha  occ. eigenvalues --  -10.30166 -10.28946 -10.28626 -10.28500 -10.28494
 Alpha  occ. eigenvalues --  -10.28471 -10.28412 -10.27946 -10.27364 -10.26650
 Alpha  occ. eigenvalues --  -10.26106 -10.26037 -10.25526 -10.25512 -10.25465
 Alpha  occ. eigenvalues --  -10.25458 -10.25354 -10.25328 -10.25056 -10.24948
 Alpha  occ. eigenvalues --  -10.24877 -10.24779 -10.24747 -10.24420 -10.24034
 Alpha  occ. eigenvalues --  -10.23986 -10.23903 -10.23872 -10.23781 -10.23771
 Alpha  occ. eigenvalues --  -10.23719 -10.23602 -10.23505 -10.23428 -10.23222
 Alpha  occ. eigenvalues --  -10.23091 -10.23067 -10.23016 -10.22938 -10.22925
 Alpha  occ. eigenvalues --  -10.22913 -10.22737 -10.22397 -10.22391 -10.22331
 Alpha  occ. eigenvalues --  -10.22178 -10.22113 -10.22074 -10.21822 -10.21778
 Alpha  occ. eigenvalues --  -10.21690  -3.15157  -1.88003  -1.87541  -1.87361
 Alpha  occ. eigenvalues --   -1.10966  -1.09239  -1.04959  -1.04892  -1.01882
 Alpha  occ. eigenvalues --   -1.01402  -0.99819  -0.99014  -0.98638  -0.97325
 Alpha  occ. eigenvalues --   -0.86751  -0.84726  -0.84277  -0.83534  -0.83417
 Alpha  occ. eigenvalues --   -0.82602  -0.82219  -0.81957  -0.81454  -0.81340
 Alpha  occ. eigenvalues --   -0.80973  -0.79875  -0.78331  -0.77674  -0.77498
 Alpha  occ. eigenvalues --   -0.76542  -0.76067  -0.75352  -0.75013  -0.74473
 Alpha  occ. eigenvalues --   -0.74104  -0.72932  -0.72375  -0.72072  -0.70235
 Alpha  occ. eigenvalues --   -0.70019  -0.69828  -0.69577  -0.68821  -0.68086
 Alpha  occ. eigenvalues --   -0.67814  -0.67169  -0.66166  -0.64678  -0.64053
 Alpha  occ. eigenvalues --   -0.62785  -0.62230  -0.61906  -0.61013  -0.60283
 Alpha  occ. eigenvalues --   -0.59877  -0.59528  -0.59003  -0.58756  -0.57525
 Alpha  occ. eigenvalues --   -0.57381  -0.57320  -0.56785  -0.56030  -0.55250
 Alpha  occ. eigenvalues --   -0.54762  -0.53919  -0.53572  -0.53192  -0.52426
 Alpha  occ. eigenvalues --   -0.52126  -0.51568  -0.51011  -0.50563  -0.50111
 Alpha  occ. eigenvalues --   -0.49440  -0.49279  -0.48973  -0.48808  -0.48531
 Alpha  occ. eigenvalues --   -0.48183  -0.47906  -0.47567  -0.47467  -0.47296
 Alpha  occ. eigenvalues --   -0.47154  -0.47083  -0.46784  -0.46496  -0.46374
 Alpha  occ. eigenvalues --   -0.46046  -0.45715  -0.45553  -0.45334  -0.45296
 Alpha  occ. eigenvalues --   -0.45100  -0.44774  -0.44698  -0.44444  -0.44243
 Alpha  occ. eigenvalues --   -0.43998  -0.43875  -0.43711  -0.43627  -0.43364
 Alpha  occ. eigenvalues --   -0.43354  -0.43175  -0.42862  -0.42837  -0.42526
 Alpha  occ. eigenvalues --   -0.42061  -0.42032  -0.41413  -0.41326  -0.41280
 Alpha  occ. eigenvalues --   -0.40995  -0.40898  -0.40794  -0.40683  -0.40568
 Alpha  occ. eigenvalues --   -0.40194  -0.39924  -0.39823  -0.39528  -0.39433
 Alpha  occ. eigenvalues --   -0.39321  -0.39199  -0.39019  -0.38919  -0.38900
 Alpha  occ. eigenvalues --   -0.38570  -0.38447  -0.38201  -0.38090  -0.37992
 Alpha  occ. eigenvalues --   -0.37942  -0.37472  -0.37231  -0.37183  -0.37112
 Alpha  occ. eigenvalues --   -0.36877  -0.36777  -0.36586  -0.36251  -0.36125
 Alpha  occ. eigenvalues --   -0.36101  -0.35743  -0.35417  -0.35208  -0.34926
 Alpha  occ. eigenvalues --   -0.34714  -0.34475  -0.34230  -0.34010  -0.33717
 Alpha  occ. eigenvalues --   -0.33524  -0.33401  -0.32762  -0.32748  -0.32271
 Alpha  occ. eigenvalues --   -0.31854  -0.31649  -0.31442  -0.31379  -0.31125
 Alpha  occ. eigenvalues --   -0.30914  -0.30430  -0.29707  -0.29217  -0.28912
 Alpha  occ. eigenvalues --   -0.28810  -0.28772  -0.28596  -0.27367  -0.26248
 Alpha  occ. eigenvalues --   -0.25599  -0.25144  -0.25131  -0.24437  -0.20505
 Alpha  occ. eigenvalues --   -0.18690
 Alpha virt. eigenvalues --   -0.10799  -0.04985  -0.03630  -0.01760  -0.00542
 Alpha virt. eigenvalues --    0.00781   0.00889   0.01455   0.01790   0.03029
 Alpha virt. eigenvalues --    0.04162   0.04545   0.04853   0.05472   0.05765

 Mulliken charges:
               1
     1  Mg   0.938835
     2  C   -0.122621
     3  C   -0.063468
     4  C   -0.046019
     5  C   -0.084229
     6  N   -0.339897
     7  C    0.050187
     8  C   -0.053978
     9  C   -0.150705
    10  C    0.069300
    11  C    0.001480
    12  C    0.029957
    13  C   -0.070870
    14  C    0.250647
    15  O   -0.271078
    16  O   -0.378261
    17  N   -0.503437
    18  C    0.152687
    19  C   -0.180244
    20  C   -0.060744
    21  C    0.147018
    22  C    0.060494
    23  C    0.053744
    24  O   -0.234349
    25  C   -0.031584
    26  N   -0.378944
    27  C    0.040400
    28  C   -0.124901
    29  C   -0.070138
    30  C    0.050375
    31  C    0.029404
    32  C   -0.029930
    33  C   -0.114303
    34  N   -0.428493
    35  C    0.143464
    36  C   -0.191389
    37  C   -0.099159
    38  C    0.242415
    39  C    0.069520
    40  C    0.138837
    41  O   -0.195115
    42  C   -0.102418
    43  C    0.306335
    44  O   -0.271128
    45  O   -0.379704
    46  C    0.122218
    47  C    0.250563
    48  C   -0.130240
    49  C   -0.242194
    50  C    0.025309
    51  C   -0.014898
    52  C   -0.049975
    53  C    0.016380
    54  C   -0.221925
    55  C   -0.039598
    56  C    0.030024
    57  C   -0.063621
    58  C    0.015961
    59  C   -0.231771
    60  C   -0.029346
    61  C   -0.028617
    62  C   -0.018099
    63  C   -0.048516
    64  C   -0.244368
    65  C   -0.010139
    66  C   -0.026917
    67  H   -0.005599
    68  H    0.020558
    69  H   -0.000402
    70  H    0.057013
    71  H    0.045026
    72  H    0.040209
    73  H    0.054588
    74  H    0.040640
    75  H    0.033707
    76  H    0.063210
    77  H    0.051318
    78  H    0.061501
    79  H    0.057020
    80  H    0.044956
    81  H    0.053782
    82  H    0.057970
    83  H    0.061562
    84  H    0.054804
    85  H    0.041651
    86  H    0.049082
    87  H    0.060603
    88  H    0.048583
    89  H    0.060591
    90  H    0.047738
    91  H    0.058196
    92  H    0.045960
    93  H    0.050160
    94  H    0.054825
    95  H    0.045453
    96  H    0.069280
    97  H    0.063272
    98  H    0.093173
    99  H    0.058354
   100  H    0.062217
   101  H    0.062185
   102  H    0.077592
   103  H    0.059597
   104  H    0.030202
   105  H    0.047644
   106  H    0.042868
   107  H    0.054740
   108  H    0.021296
   109  H    0.038228
   110  H    0.039790
   111  H    0.030888
   112  H    0.031124
   113  H    0.024224
   114  H    0.039495
   115  H    0.036282
   116  H    0.023356
   117  H    0.031637
   118  H    0.031231
   119  H    0.020622
   120  H    0.035765
   121  H    0.032559
   122  H    0.022692
   123  H    0.020429
   124  H    0.033840
   125  H    0.036190
   126  H    0.042283
   127  H    0.034004
   128  H    0.016943
   129  H    0.021587
   130  H    0.040544
   131  H    0.043553
   132  H    0.044983
   133  H    0.023990
   134  H    0.035845
   135  H    0.030887
   136  H    0.021325
   137  H    0.043958
   138  H    0.033808
   139  H    0.038458
   140  H    0.044131
 Sum of Mulliken charges =  -0.00000

 Dipole moment (field-independent basis, Debye):
    X=             -3.6595    Y=              3.9791    Z=             -0.6268  Tot=              5.4422
 Quadrupole moment (field-independent basis, Debye-Ang):
   XX=           -373.3075   YY=           -414.3474   ZZ=           -402.3094
   XY=              8.7348   XZ=             24.0718   YZ=              1.9770

 Normal termination of Gaussian 16 at Wed Apr 27 13:47:33 2022.
