 Gaussian 16, Revision A.03,
 Gaussian 16:  ES64L-G16RevA.03 25-Dec-2016

 --------------------------------
 #p wB97XD/Def2SVP td=(nstates=5)
 --------------------------------

 -----------------------------------------------------
 step_1201_chromophore_16 TDDFT with wB97XD functional
 -----------------------------------------------------
 Symbolic Z-matrix:
 Charge =  0 Multiplicity = 1

                         Standard orientation:
 ---------------------------------------------------------------------
 Center     Atomic      Atomic             Coordinates (Angstroms)
 Number     Number       Type             X           Y           Z
 ---------------------------------------------------------------------
      1         12           0        6.349915    0.624733    0.072120
      2          6           0        3.870931   -2.040748    0.050790
      3          6           0        3.867495    2.636539   -1.201273
      4          6           0        8.528277    2.917122    0.098693
      5          6           0        8.562902   -1.748135    1.338244
      6          7           0        4.109561    0.211736   -0.685290
      7          6           0        3.329006   -0.906680   -0.539215
      8          6           0        1.864363   -0.628365   -0.998807
      9          6           0        2.009820    0.857864   -1.557547
     10          6           0        3.401795    1.281113   -1.131556
     11          6           0        1.759444    1.120406   -3.085149
     12          6           0        0.723500   -0.766578    0.014602
     13          6           0       -0.637460   -1.008934   -0.581990
     14          6           0       -1.635316   -1.855177    0.141237
     15          8           0       -1.580014   -2.273625    1.293365
     16          8           0       -2.659377   -2.118675   -0.696649
     17          7           0        6.233701    2.562598   -0.495960
     18          6           0        5.159798    3.227936   -0.967248
     19          6           0        5.584283    4.648697   -1.188221
     20          6           0        6.914172    4.755017   -0.779187
     21          6           0        7.287685    3.396217   -0.393726
     22          6           0        4.625723    5.698190   -1.753991
     23          6           0        7.861224    5.941251   -0.738177
     24          8           0        9.057670    5.960964   -0.467560
     25          6           0        7.265142    7.326814   -0.980222
     26          7           0        8.465283    0.508844    0.393785
     27          6           0        9.093513    1.669812    0.479026
     28          6           0       10.476431    1.420366    1.025611
     29          6           0       10.396446   -0.049091    1.614864
     30          6           0        9.075848   -0.462520    1.117762
     31          6           0       11.642474    1.837340    0.038648
     32          6           0       10.568256   -0.271276    3.157183
     33          6           0        9.790757    0.815061    4.001911
     34          7           0        6.366505   -1.528421    0.362765
     35          6           0        7.343198   -2.321343    0.943494
     36          6           0        6.874656   -3.633768    1.018940
     37          6           0        5.477794   -3.485150    0.846421
     38          6           0        5.235061   -2.214266    0.358352
     39          6           0        7.698141   -4.784039    1.426355
     40          6           0        4.231177   -4.248070    0.980416
     41          8           0        3.972704   -5.345318    1.406534
     42          6           0        3.098678   -3.278221    0.521023
     43          6           0        2.489363   -3.963883   -0.627167
     44          8           0        3.031859   -4.207136   -1.714229
     45          8           0        1.186455   -4.306316   -0.256036
     46          6           0        0.409884   -4.966832   -1.343242
     47          6           0       -3.743575   -3.048065   -0.216015
     48          6           0       -5.016047   -2.763435   -1.009579
     49          6           0       -6.148535   -3.494951   -1.015749
     50          6           0       -6.405873   -4.761785   -0.195413
     51          6           0       -7.321888   -3.031239   -1.886300
     52          6           0       -8.194170   -1.959005   -1.162167
     53          6           0       -7.921918   -0.501991   -1.627064
     54          6           0       -9.187769    0.291256   -1.898282
     55          6           0       -9.182515    0.556470   -3.409906
     56          6           0       -9.559535    1.542247   -0.978731
     57          6           0      -10.829558    1.294534   -0.080946
     58          6           0      -12.169252    1.469891   -0.809784
     59          6           0      -13.368931    0.672744   -0.266630
     60          6           0      -13.651142   -0.489906   -1.323250
     61          6           0      -14.586807    1.639577   -0.065030
     62          6           0      -14.439448    2.662081    1.158489
     63          6           0      -15.711157    2.541105    2.013921
     64          6           0      -15.464354    3.131906    3.465794
     65          6           0      -16.799090    3.460765    4.143460
     66          6           0      -14.553456    2.038018    4.166591
     67          1           0        3.092610    3.337838   -1.516974
     68          1           0        9.217246    3.720950    0.365116
     69          1           0        9.215986   -2.436509    1.878592
     70          1           0        1.633220   -1.281923   -1.839764
     71          1           0        1.289550    1.527572   -1.087698
     72          1           0        1.636240    0.136687   -3.538096
     73          1           0        2.545438    1.607486   -3.661355
     74          1           0        0.854998    1.716414   -3.204591
     75          1           0        0.501913    0.206836    0.451359
     76          1           0        0.868877   -1.419552    0.875391
     77          1           0       -0.462666   -1.423177   -1.575712
     78          1           0       -1.087931   -0.045211   -0.821352
     79          1           0        4.412508    6.486255   -1.032030
     80          1           0        3.676346    5.283224   -2.093125
     81          1           0        5.132326    6.196983   -2.579565
     82          1           0        8.027056    8.093861   -0.843152
     83          1           0        6.499177    7.484083   -0.220713
     84          1           0        6.885589    7.244541   -1.999336
     85          1           0       10.641972    2.070702    1.884566
     86          1           0       11.055257   -0.732513    1.080450
     87          1           0       11.298214    1.659306   -0.980090
     88          1           0       12.418743    1.199676    0.463187
     89          1           0       11.840750    2.895775    0.207875
     90          1           0       11.591310   -0.062180    3.468040
     91          1           0       10.077162   -1.171865    3.525413
     92          1           0       10.404818    1.715222    3.972257
     93          1           0        9.683967    0.480425    5.033658
     94          1           0        8.819575    1.013324    3.549063
     95          1           0        8.770053   -4.718129    1.236808
     96          1           0        7.246659   -5.638493    0.921659
     97          1           0        7.536656   -4.827130    2.503622
     98          1           0        2.375694   -3.006202    1.290441
     99          1           0        0.142177   -4.293767   -2.157881
    100          1           0       -0.432336   -5.487386   -0.887352
    101          1           0        1.057025   -5.748836   -1.740816
    102          1           0       -3.923312   -2.940064    0.853053
    103          1           0       -3.376597   -4.052477   -0.428124
    104          1           0       -5.031727   -1.915610   -1.694830
    105          1           0       -7.381279   -4.685894    0.284336
    106          1           0       -5.651526   -4.990997    0.558273
    107          1           0       -6.450273   -5.563982   -0.931415
    108          1           0       -7.949176   -3.866520   -2.197614
    109          1           0       -6.927699   -2.660562   -2.832188
    110          1           0       -7.998663   -1.969417   -0.090079
    111          1           0       -9.224383   -2.285549   -1.308949
    112          1           0       -7.221930   -0.547070   -2.461069
    113          1           0       -7.393968   -0.087342   -0.768852
    114          1           0      -10.027392   -0.391824   -1.770672
    115          1           0       -8.247820    0.942919   -3.817369
    116          1           0       -9.929889    1.256649   -3.784547
    117          1           0       -9.435393   -0.387109   -3.893502
    118          1           0       -9.600681    2.366254   -1.691060
    119          1           0       -8.692942    1.560094   -0.317521
    120          1           0      -10.731183    2.039604    0.709500
    121          1           0      -10.891449    0.301138    0.363836
    122          1           0      -12.014168    1.224309   -1.859988
    123          1           0      -12.399822    2.535439   -0.820439
    124          1           0      -13.188552    0.170777    0.682826
    125          1           0      -13.916810   -1.332839   -0.685637
    126          1           0      -12.857466   -0.776325   -2.012536
    127          1           0      -14.475408   -0.199847   -1.974520
    128          1           0      -15.439312    0.966194    0.017970
    129          1           0      -14.846757    2.164344   -0.983345
    130          1           0      -14.440013    3.629390    0.655460
    131          1           0      -13.525278    2.391391    1.687153
    132          1           0      -16.076202    1.517590    2.104839
    133          1           0      -16.414819    3.300213    1.672307
    134          1           0      -14.960921    4.096456    3.399634
    135          1           0      -16.496082    3.762168    5.146095
    136          1           0      -17.412693    2.587639    4.366979
    137          1           0      -17.470648    4.145008    3.625818
    138          1           0      -14.887439    1.792194    5.174486
    139          1           0      -13.575476    2.509907    4.265295
    140          1           0      -14.416388    1.148915    3.550979
 ---------------------------------------------------------------------

 SCF Done:  E(RwB97XD) =  -3007.87453446     A.U. after   20 cycles

 Excitation energies and oscillator strengths:

 Excited State   1:      Singlet-A      1.7101 eV  725.01 nm  f=0.3757  <S**2>=0.000
     245 -> 248        0.19717
     246 -> 247        0.67962
     245 <- 248        0.11734
 This state for optimization and/or second-order correction.
 Total Energy, E(TD-HF/TD-DFT) =  -3007.81168915
 Copying the excited state density for this state as the 1-particle RhoCI density.

 Excited State   2:      Singlet-A      2.1676 eV  571.99 nm  f=0.1157  <S**2>=0.000
     245 -> 247        0.64255
     246 -> 248       -0.28215

 Excited State   3:      Singlet-A      3.3578 eV  369.24 nm  f=0.0028  <S**2>=0.000
     244 -> 247        0.67695
     244 -> 249        0.11035

 Excited State   4:      Singlet-A      3.5860 eV  345.74 nm  f=0.5379  <S**2>=0.000
     239 -> 247        0.11887
     240 -> 247       -0.15587
     240 -> 249        0.15515
     241 -> 247       -0.23637
     241 -> 249        0.10841
     245 -> 247        0.23167
     246 -> 248        0.53746
     245 <- 247       -0.10122

 Excited State   5:      Singlet-A      3.6348 eV  341.11 nm  f=0.0065  <S**2>=0.000
     242 -> 247        0.57481
     242 -> 249        0.26056
     242 -> 250        0.25515

 The electronic state is 1-A.
 Alpha  occ. eigenvalues --  -46.96179 -19.30092 -19.29794 -19.24520 -19.24484
 Alpha  occ. eigenvalues --  -19.24307 -19.23330 -14.46426 -14.45922 -14.44798
 Alpha  occ. eigenvalues --  -14.42668 -10.42985 -10.42748 -10.39716 -10.38172
 Alpha  occ. eigenvalues --  -10.36667 -10.35416 -10.35258 -10.35033 -10.34989
 Alpha  occ. eigenvalues --  -10.34973 -10.34614 -10.34169 -10.34026 -10.32883
 Alpha  occ. eigenvalues --  -10.32384 -10.32199 -10.32027 -10.31866 -10.31779
 Alpha  occ. eigenvalues --  -10.31688 -10.31620 -10.31585 -10.31569 -10.31293
 Alpha  occ. eigenvalues --  -10.31186 -10.31143 -10.31001 -10.30545 -10.30376
 Alpha  occ. eigenvalues --  -10.30328 -10.30311 -10.30272 -10.30237 -10.30151
 Alpha  occ. eigenvalues --  -10.29993 -10.29965 -10.29873 -10.29873 -10.29830
 Alpha  occ. eigenvalues --  -10.29440 -10.29368 -10.29343 -10.29311 -10.29284
 Alpha  occ. eigenvalues --  -10.29181 -10.29123 -10.28754 -10.28743 -10.28688
 Alpha  occ. eigenvalues --  -10.28594 -10.28526 -10.28260 -10.28211 -10.28116
 Alpha  occ. eigenvalues --  -10.28075  -3.21991  -1.95583  -1.95121  -1.94933
 Alpha  occ. eigenvalues --   -1.18326  -1.16619  -1.12560  -1.12264  -1.09199
 Alpha  occ. eigenvalues --   -1.08744  -1.07214  -1.06498  -1.05825  -1.04686
 Alpha  occ. eigenvalues --   -0.94249  -0.92395  -0.91911  -0.91103  -0.91080
 Alpha  occ. eigenvalues --   -0.90275  -0.90070  -0.89646  -0.89057  -0.88993
 Alpha  occ. eigenvalues --   -0.88411  -0.87508  -0.85996  -0.85222  -0.85142
 Alpha  occ. eigenvalues --   -0.84193  -0.83784  -0.83141  -0.82664  -0.82122
 Alpha  occ. eigenvalues --   -0.81780  -0.80743  -0.79977  -0.79612  -0.77814
 Alpha  occ. eigenvalues --   -0.77667  -0.77528  -0.77140  -0.76508  -0.75733
 Alpha  occ. eigenvalues --   -0.75437  -0.74645  -0.73711  -0.72292  -0.71613
 Alpha  occ. eigenvalues --   -0.70427  -0.69865  -0.69431  -0.68653  -0.67818
 Alpha  occ. eigenvalues --   -0.67519  -0.66915  -0.66420  -0.66189  -0.65076
 Alpha  occ. eigenvalues --   -0.65057  -0.64897  -0.64437  -0.63404  -0.62836
 Alpha  occ. eigenvalues --   -0.62259  -0.61300  -0.60973  -0.60548  -0.59764
 Alpha  occ. eigenvalues --   -0.59607  -0.59028  -0.58512  -0.57945  -0.57494
 Alpha  occ. eigenvalues --   -0.56829  -0.56686  -0.56340  -0.56289  -0.55876
 Alpha  occ. eigenvalues --   -0.55580  -0.55346  -0.55222  -0.54930  -0.54608
 Alpha  occ. eigenvalues --   -0.54530  -0.54415  -0.54142  -0.53884  -0.53726
 Alpha  occ. eigenvalues --   -0.53439  -0.53096  -0.52820  -0.52672  -0.52638
 Alpha  occ. eigenvalues --   -0.52522  -0.52107  -0.52031  -0.51781  -0.51501
 Alpha  occ. eigenvalues --   -0.51285  -0.51234  -0.51158  -0.51111  -0.50673
 Alpha  occ. eigenvalues --   -0.50650  -0.50478  -0.50172  -0.50135  -0.49968
 Alpha  occ. eigenvalues --   -0.49295  -0.49257  -0.48655  -0.48576  -0.48492
 Alpha  occ. eigenvalues --   -0.48208  -0.48146  -0.47914  -0.47786  -0.47700
 Alpha  occ. eigenvalues --   -0.47353  -0.47159  -0.47037  -0.46740  -0.46673
 Alpha  occ. eigenvalues --   -0.46467  -0.46426  -0.46207  -0.46111  -0.46087
 Alpha  occ. eigenvalues --   -0.45627  -0.45547  -0.45322  -0.45181  -0.45116
 Alpha  occ. eigenvalues --   -0.45099  -0.44669  -0.44483  -0.44379  -0.44125
 Alpha  occ. eigenvalues --   -0.43890  -0.43755  -0.43686  -0.43363  -0.43141
 Alpha  occ. eigenvalues --   -0.43068  -0.42777  -0.42509  -0.42147  -0.41973
 Alpha  occ. eigenvalues --   -0.41655  -0.41554  -0.41273  -0.41077  -0.40733
 Alpha  occ. eigenvalues --   -0.40486  -0.40400  -0.39833  -0.39675  -0.39297
 Alpha  occ. eigenvalues --   -0.38898  -0.38615  -0.38451  -0.38375  -0.38172
 Alpha  occ. eigenvalues --   -0.37900  -0.37325  -0.36661  -0.36143  -0.35992
 Alpha  occ. eigenvalues --   -0.35764  -0.35600  -0.35275  -0.34142  -0.33026
 Alpha  occ. eigenvalues --   -0.32738  -0.32030  -0.31899  -0.30773  -0.25450
 Alpha  occ. eigenvalues --   -0.22879
 Alpha virt. eigenvalues --   -0.06656   0.00440   0.02575   0.04806   0.05362
 Alpha virt. eigenvalues --    0.07600   0.07731   0.08168   0.08582   0.09306
 Alpha virt. eigenvalues --    0.10666   0.11419   0.11626   0.12188   0.12551

 Mulliken charges:
               1
     1  Mg   0.932232
     2  C   -0.119412
     3  C   -0.080786
     4  C   -0.061944
     5  C   -0.100115
     6  N   -0.304629
     7  C    0.005935
     8  C   -0.023633
     9  C   -0.126833
    10  C    0.056999
    11  C    0.011395
    12  C    0.042133
    13  C   -0.053543
    14  C    0.239513
    15  O   -0.267860
    16  O   -0.376750
    17  N   -0.471520
    18  C    0.145318
    19  C   -0.168243
    20  C   -0.053671
    21  C    0.139512
    22  C    0.072478
    23  C    0.049078
    24  O   -0.226978
    25  C   -0.015966
    26  N   -0.345980
    27  C    0.029917
    28  C   -0.101910
    29  C   -0.043012
    30  C    0.033363
    31  C    0.042523
    32  C   -0.013824
    33  C   -0.095224
    34  N   -0.389738
    35  C    0.133243
    36  C   -0.188740
    37  C   -0.093386
    38  C    0.221944
    39  C    0.079742
    40  C    0.119707
    41  O   -0.187029
    42  C   -0.059893
    43  C    0.279265
    44  O   -0.265951
    45  O   -0.378091
    46  C    0.137220
    47  C    0.260966
    48  C   -0.141227
    49  C   -0.225468
    50  C    0.038642
    51  C    0.003974
    52  C   -0.035776
    53  C    0.032321
    54  C   -0.189195
    55  C   -0.024795
    56  C    0.044388
    57  C   -0.040179
    58  C    0.028172
    59  C   -0.201580
    60  C   -0.016964
    61  C   -0.014326
    62  C   -0.003602
    63  C   -0.025370
    64  C   -0.218166
    65  C    0.001085
    66  C   -0.015573
    67  H   -0.013706
    68  H    0.013712
    69  H   -0.007544
    70  H    0.041633
    71  H    0.033388
    72  H    0.034265
    73  H    0.049081
    74  H    0.035836
    75  H    0.024283
    76  H    0.053928
    77  H    0.042170
    78  H    0.055643
    79  H    0.053011
    80  H    0.042460
    81  H    0.048522
    82  H    0.057743
    83  H    0.055822
    84  H    0.047134
    85  H    0.027199
    86  H    0.039102
    87  H    0.055029
    88  H    0.042424
    89  H    0.055616
    90  H    0.040134
    91  H    0.049631
    92  H    0.038322
    93  H    0.045568
    94  H    0.043596
    95  H    0.039991
    96  H    0.064172
    97  H    0.056852
    98  H    0.087890
    99  H    0.054225
   100  H    0.059571
   101  H    0.057743
   102  H    0.073800
   103  H    0.055159
   104  H    0.026577
   105  H    0.041781
   106  H    0.038516
   107  H    0.048663
   108  H    0.015140
   109  H    0.029388
   110  H    0.030545
   111  H    0.023605
   112  H    0.018883
   113  H    0.015235
   114  H    0.016201
   115  H    0.029966
   116  H    0.017375
   117  H    0.024249
   118  H    0.024164
   119  H    0.011618
   120  H    0.028401
   121  H    0.021681
   122  H    0.008644
   123  H    0.010936
   124  H    0.021635
   125  H    0.030713
   126  H    0.036405
   127  H    0.027925
   128  H    0.006703
   129  H    0.013212
   130  H    0.033536
   131  H    0.030686
   132  H    0.034583
   133  H    0.013969
   134  H    0.025804
   135  H    0.024341
   136  H    0.014439
   137  H    0.039244
   138  H    0.029166
   139  H    0.032445
   140  H    0.036037
 Sum of Mulliken charges =  -0.00000

 Dipole moment (field-independent basis, Debye):
    X=             -3.7701    Y=              4.5984    Z=             -0.8116  Tot=              6.0015
 Quadrupole moment (field-independent basis, Debye-Ang):
   XX=           -374.7074   YY=           -411.7950   ZZ=           -402.0953
   XY=             12.9973   XZ=             22.7624   YZ=              1.7525

 Normal termination of Gaussian 16 at Wed Apr 27 14:14:20 2022.
