 Gaussian 16, Revision A.03,
 Gaussian 16:  ES64L-G16RevA.03 25-Dec-2016

 --------------------
 #p ZINDO=(nstates=5)
 --------------------

 ------------------------------
 step_1201_chromophore_16 ZINDO
 ------------------------------
 Symbolic Z-matrix:
 Charge =  0 Multiplicity = 1

                         Standard orientation:
 ---------------------------------------------------------------------
 Center     Atomic      Atomic             Coordinates (Angstroms)
 Number     Number       Type             X           Y           Z
 ---------------------------------------------------------------------
      1         12           0        6.349915    0.624733    0.072120
      2          6           0        3.870931   -2.040748    0.050790
      3          6           0        3.867495    2.636539   -1.201273
      4          6           0        8.528277    2.917122    0.098693
      5          6           0        8.562902   -1.748135    1.338244
      6          7           0        4.109561    0.211736   -0.685290
      7          6           0        3.329006   -0.906680   -0.539215
      8          6           0        1.864363   -0.628365   -0.998807
      9          6           0        2.009820    0.857864   -1.557547
     10          6           0        3.401795    1.281113   -1.131556
     11          6           0        1.759444    1.120406   -3.085149
     12          6           0        0.723500   -0.766578    0.014602
     13          6           0       -0.637460   -1.008934   -0.581990
     14          6           0       -1.635316   -1.855177    0.141237
     15          8           0       -1.580014   -2.273625    1.293365
     16          8           0       -2.659377   -2.118675   -0.696649
     17          7           0        6.233701    2.562598   -0.495960
     18          6           0        5.159798    3.227936   -0.967248
     19          6           0        5.584283    4.648697   -1.188221
     20          6           0        6.914172    4.755017   -0.779187
     21          6           0        7.287685    3.396217   -0.393726
     22          6           0        4.625723    5.698190   -1.753991
     23          6           0        7.861224    5.941251   -0.738177
     24          8           0        9.057670    5.960964   -0.467560
     25          6           0        7.265142    7.326814   -0.980222
     26          7           0        8.465283    0.508844    0.393785
     27          6           0        9.093513    1.669812    0.479026
     28          6           0       10.476431    1.420366    1.025611
     29          6           0       10.396446   -0.049091    1.614864
     30          6           0        9.075848   -0.462520    1.117762
     31          6           0       11.642474    1.837340    0.038648
     32          6           0       10.568256   -0.271276    3.157183
     33          6           0        9.790757    0.815061    4.001911
     34          7           0        6.366505   -1.528421    0.362765
     35          6           0        7.343198   -2.321343    0.943494
     36          6           0        6.874656   -3.633768    1.018940
     37          6           0        5.477794   -3.485150    0.846421
     38          6           0        5.235061   -2.214266    0.358352
     39          6           0        7.698141   -4.784039    1.426355
     40          6           0        4.231177   -4.248070    0.980416
     41          8           0        3.972704   -5.345318    1.406534
     42          6           0        3.098678   -3.278221    0.521023
     43          6           0        2.489363   -3.963883   -0.627167
     44          8           0        3.031859   -4.207136   -1.714229
     45          8           0        1.186455   -4.306316   -0.256036
     46          6           0        0.409884   -4.966832   -1.343242
     47          6           0       -3.743575   -3.048065   -0.216015
     48          6           0       -5.016047   -2.763435   -1.009579
     49          6           0       -6.148535   -3.494951   -1.015749
     50          6           0       -6.405873   -4.761785   -0.195413
     51          6           0       -7.321888   -3.031239   -1.886300
     52          6           0       -8.194170   -1.959005   -1.162167
     53          6           0       -7.921918   -0.501991   -1.627064
     54          6           0       -9.187769    0.291256   -1.898282
     55          6           0       -9.182515    0.556470   -3.409906
     56          6           0       -9.559535    1.542247   -0.978731
     57          6           0      -10.829558    1.294534   -0.080946
     58          6           0      -12.169252    1.469891   -0.809784
     59          6           0      -13.368931    0.672744   -0.266630
     60          6           0      -13.651142   -0.489906   -1.323250
     61          6           0      -14.586807    1.639577   -0.065030
     62          6           0      -14.439448    2.662081    1.158489
     63          6           0      -15.711157    2.541105    2.013921
     64          6           0      -15.464354    3.131906    3.465794
     65          6           0      -16.799090    3.460765    4.143460
     66          6           0      -14.553456    2.038018    4.166591
     67          1           0        3.092610    3.337838   -1.516974
     68          1           0        9.217246    3.720950    0.365116
     69          1           0        9.215986   -2.436509    1.878592
     70          1           0        1.633220   -1.281923   -1.839764
     71          1           0        1.289550    1.527572   -1.087698
     72          1           0        1.636240    0.136687   -3.538096
     73          1           0        2.545438    1.607486   -3.661355
     74          1           0        0.854998    1.716414   -3.204591
     75          1           0        0.501913    0.206836    0.451359
     76          1           0        0.868877   -1.419552    0.875391
     77          1           0       -0.462666   -1.423177   -1.575712
     78          1           0       -1.087931   -0.045211   -0.821352
     79          1           0        4.412508    6.486255   -1.032030
     80          1           0        3.676346    5.283224   -2.093125
     81          1           0        5.132326    6.196983   -2.579565
     82          1           0        8.027056    8.093861   -0.843152
     83          1           0        6.499177    7.484083   -0.220713
     84          1           0        6.885589    7.244541   -1.999336
     85          1           0       10.641972    2.070702    1.884566
     86          1           0       11.055257   -0.732513    1.080450
     87          1           0       11.298214    1.659306   -0.980090
     88          1           0       12.418743    1.199676    0.463187
     89          1           0       11.840750    2.895775    0.207875
     90          1           0       11.591310   -0.062180    3.468040
     91          1           0       10.077162   -1.171865    3.525413
     92          1           0       10.404818    1.715222    3.972257
     93          1           0        9.683967    0.480425    5.033658
     94          1           0        8.819575    1.013324    3.549063
     95          1           0        8.770053   -4.718129    1.236808
     96          1           0        7.246659   -5.638493    0.921659
     97          1           0        7.536656   -4.827130    2.503622
     98          1           0        2.375694   -3.006202    1.290441
     99          1           0        0.142177   -4.293767   -2.157881
    100          1           0       -0.432336   -5.487386   -0.887352
    101          1           0        1.057025   -5.748836   -1.740816
    102          1           0       -3.923312   -2.940064    0.853053
    103          1           0       -3.376597   -4.052477   -0.428124
    104          1           0       -5.031727   -1.915610   -1.694830
    105          1           0       -7.381279   -4.685894    0.284336
    106          1           0       -5.651526   -4.990997    0.558273
    107          1           0       -6.450273   -5.563982   -0.931415
    108          1           0       -7.949176   -3.866520   -2.197614
    109          1           0       -6.927699   -2.660562   -2.832188
    110          1           0       -7.998663   -1.969417   -0.090079
    111          1           0       -9.224383   -2.285549   -1.308949
    112          1           0       -7.221930   -0.547070   -2.461069
    113          1           0       -7.393968   -0.087342   -0.768852
    114          1           0      -10.027392   -0.391824   -1.770672
    115          1           0       -8.247820    0.942919   -3.817369
    116          1           0       -9.929889    1.256649   -3.784547
    117          1           0       -9.435393   -0.387109   -3.893502
    118          1           0       -9.600681    2.366254   -1.691060
    119          1           0       -8.692942    1.560094   -0.317521
    120          1           0      -10.731183    2.039604    0.709500
    121          1           0      -10.891449    0.301138    0.363836
    122          1           0      -12.014168    1.224309   -1.859988
    123          1           0      -12.399822    2.535439   -0.820439
    124          1           0      -13.188552    0.170777    0.682826
    125          1           0      -13.916810   -1.332839   -0.685637
    126          1           0      -12.857466   -0.776325   -2.012536
    127          1           0      -14.475408   -0.199847   -1.974520
    128          1           0      -15.439312    0.966194    0.017970
    129          1           0      -14.846757    2.164344   -0.983345
    130          1           0      -14.440013    3.629390    0.655460
    131          1           0      -13.525278    2.391391    1.687153
    132          1           0      -16.076202    1.517590    2.104839
    133          1           0      -16.414819    3.300213    1.672307
    134          1           0      -14.960921    4.096456    3.399634
    135          1           0      -16.496082    3.762168    5.146095
    136          1           0      -17.412693    2.587639    4.366979
    137          1           0      -17.470648    4.145008    3.625818
    138          1           0      -14.887439    1.792194    5.174486
    139          1           0      -13.575476    2.509907    4.265295
    140          1           0      -14.416388    1.148915    3.550979
 ---------------------------------------------------------------------

 SCF Done:  E(RZINDO/S) =  -474.291652732     A.U. after   19 cycles

 Excitation energies and oscillator strengths:

 Excited State   1:      Singlet-A      1.2638 eV  981.02 nm  f=0.5714  <S**2>=0.000
     175 ->178         0.19319
     176 ->177         0.66304
 This state for optimization and/or second-order correction.
 Total Energy, E(CIS/TDA) =  -474.245207905
 Copying the excited state density for this state as the 1-particle RhoCI density.

 Excited State   2:      Singlet-A      1.8909 eV  655.68 nm  f=0.0527  <S**2>=0.000
     175 ->177         0.55607
     176 ->178        -0.40968

 Excited State   3:      Singlet-A      2.9249 eV  423.90 nm  f=0.0253  <S**2>=0.000
     167 ->179         0.13501
     168 ->177        -0.27830
     168 ->178         0.11078
     168 ->179         0.42097
     168 ->180        -0.24340
     168 ->184         0.13342
     168 ->186         0.20152
     168 ->194         0.10419

 Excited State   4:      Singlet-A      3.0084 eV  412.13 nm  f=0.8224  <S**2>=0.000
     171 ->177         0.15811
     171 ->179         0.12495
     171 ->180         0.16364
     175 ->177         0.31988
     176 ->178         0.45694
     176 ->179        -0.15707
     176 ->180        -0.11478

 Excited State   5:      Singlet-A      3.0301 eV  409.17 nm  f=0.4150  <S**2>=0.000
     170 ->177         0.10837
     171 ->177        -0.17518
     171 ->179        -0.17567
     171 ->180        -0.24475
     171 ->186        -0.13045
     174 ->177        -0.10112
     175 ->177         0.21462
     176 ->178         0.29011
     176 ->179         0.30372

 The electronic state is 1-A.
 Alpha  occ. eigenvalues --   -1.85548  -1.83367  -1.80170  -1.73363  -1.71217
 Alpha  occ. eigenvalues --   -1.70909  -1.64420  -1.60589  -1.59420  -1.58274
 Alpha  occ. eigenvalues --   -1.54867  -1.51404  -1.49025  -1.48255  -1.46533
 Alpha  occ. eigenvalues --   -1.43859  -1.42450  -1.40014  -1.38484  -1.37420
 Alpha  occ. eigenvalues --   -1.35628  -1.34475  -1.32243  -1.31126  -1.28782
 Alpha  occ. eigenvalues --   -1.27868  -1.24725  -1.22264  -1.20860  -1.18698
 Alpha  occ. eigenvalues --   -1.17221  -1.16337  -1.15016  -1.14420  -1.13311
 Alpha  occ. eigenvalues --   -1.12439  -1.11502  -1.09851  -1.04840  -1.03256
 Alpha  occ. eigenvalues --   -1.02539  -1.00591  -0.98244  -0.97742  -0.96634
 Alpha  occ. eigenvalues --   -0.95280  -0.94095  -0.93885  -0.92136  -0.91179
 Alpha  occ. eigenvalues --   -0.90861  -0.89761  -0.89411  -0.88342  -0.86940
 Alpha  occ. eigenvalues --   -0.85258  -0.83922  -0.82857  -0.82296  -0.80973
 Alpha  occ. eigenvalues --   -0.79443  -0.78744  -0.76725  -0.76681  -0.75948
 Alpha  occ. eigenvalues --   -0.75784  -0.75028  -0.74638  -0.73935  -0.73191
 Alpha  occ. eigenvalues --   -0.72979  -0.72283  -0.71785  -0.70952  -0.70515
 Alpha  occ. eigenvalues --   -0.70346  -0.69457  -0.68651  -0.68478  -0.67967
 Alpha  occ. eigenvalues --   -0.67585  -0.67523  -0.66883  -0.66175  -0.65597
 Alpha  occ. eigenvalues --   -0.65342  -0.64340  -0.64120  -0.63670  -0.63410
 Alpha  occ. eigenvalues --   -0.63178  -0.63044  -0.62776  -0.62402  -0.62261
 Alpha  occ. eigenvalues --   -0.61795  -0.61426  -0.60843  -0.60064  -0.59866
 Alpha  occ. eigenvalues --   -0.59470  -0.59281  -0.58808  -0.58443  -0.58167
 Alpha  occ. eigenvalues --   -0.57905  -0.57353  -0.56854  -0.56607  -0.55857
 Alpha  occ. eigenvalues --   -0.55798  -0.55492  -0.55241  -0.54903  -0.54620
 Alpha  occ. eigenvalues --   -0.54283  -0.53609  -0.53457  -0.53156  -0.53035
 Alpha  occ. eigenvalues --   -0.52686  -0.52199  -0.52066  -0.52063  -0.51393
 Alpha  occ. eigenvalues --   -0.51121  -0.51068  -0.50773  -0.50488  -0.50247
 Alpha  occ. eigenvalues --   -0.50087  -0.50066  -0.49709  -0.49523  -0.48999
 Alpha  occ. eigenvalues --   -0.48661  -0.48396  -0.48272  -0.47690  -0.47514
 Alpha  occ. eigenvalues --   -0.47391  -0.46993  -0.46886  -0.46808  -0.46607
 Alpha  occ. eigenvalues --   -0.46443  -0.46028  -0.45745  -0.45555  -0.45532
 Alpha  occ. eigenvalues --   -0.45080  -0.44729  -0.44566  -0.44179  -0.43853
 Alpha  occ. eigenvalues --   -0.43845  -0.43490  -0.42719  -0.42573  -0.42019
 Alpha  occ. eigenvalues --   -0.41886  -0.41839  -0.41008  -0.38831  -0.38349
 Alpha  occ. eigenvalues --   -0.37889  -0.36290  -0.35667  -0.34830  -0.34171
 Alpha  occ. eigenvalues --   -0.33638  -0.32038  -0.32000  -0.31096  -0.26047
 Alpha  occ. eigenvalues --   -0.21440
 Alpha virt. eigenvalues --   -0.08099  -0.01698  -0.00358   0.01469   0.02161
 Alpha virt. eigenvalues --    0.02236   0.03241   0.03497   0.05036   0.05104
 Alpha virt. eigenvalues --    0.06259   0.06664   0.06929   0.07674   0.08187

 Mulliken charges:
               1
     1  Mg   0.438319
     2  C   -0.026120
     3  C   -0.102402
     4  C   -0.085124
     5  C   -0.070508
     6  N   -0.298280
     7  C    0.095776
     8  C    0.010645
     9  C    0.003246
    10  C    0.156835
    11  C   -0.051025
    12  C   -0.025080
    13  C    0.008384
    14  C    0.477019
    15  O   -0.524812
    16  O   -0.279321
    17  N   -0.308472
    18  C    0.118140
    19  C    0.020942
    20  C   -0.031735
    21  C    0.146276
    22  C   -0.042345
    23  C    0.326530
    24  O   -0.516698
    25  C   -0.033757
    26  N   -0.264761
    27  C    0.167503
    28  C    0.000876
    29  C    0.005639
    30  C    0.109917
    31  C   -0.052806
    32  C   -0.037954
    33  C   -0.064699
    34  N   -0.334267
    35  C    0.076136
    36  C    0.030346
    37  C   -0.063645
    38  C    0.123441
    39  C   -0.038889
    40  C    0.335193
    41  O   -0.517531
    42  C    0.052480
    43  C    0.494829
    44  O   -0.534743
    45  O   -0.273355
    46  C    0.069807
    47  C    0.108017
    48  C   -0.098857
    49  C   -0.007236
    50  C   -0.042097
    51  C   -0.023209
    52  C   -0.032539
    53  C   -0.027859
    54  C   -0.018646
    55  C   -0.056233
    56  C   -0.040919
    57  C   -0.032984
    58  C   -0.032784
    59  C   -0.014645
    60  C   -0.066295
    61  C   -0.047882
    62  C   -0.038969
    63  C   -0.040953
    64  C   -0.023162
    65  C   -0.059632
    66  C   -0.059456
    67  H    0.018888
    68  H    0.028023
    69  H    0.018109
    70  H    0.037192
    71  H    0.023836
    72  H    0.021247
    73  H    0.029073
    74  H    0.018377
    75  H    0.014778
    76  H    0.041877
    77  H    0.034220
    78  H    0.039585
    79  H    0.030824
    80  H    0.029489
    81  H    0.029157
    82  H    0.041477
    83  H    0.035326
    84  H    0.040630
    85  H    0.023870
    86  H    0.028783
    87  H    0.036925
    88  H    0.029762
    89  H    0.031888
    90  H    0.025289
    91  H    0.038226
    92  H    0.017189
    93  H    0.019206
    94  H    0.023763
    95  H    0.026712
    96  H    0.035099
    97  H    0.034690
    98  H    0.063817
    99  H    0.043801
   100  H    0.036471
   101  H    0.044388
   102  H    0.062135
   103  H    0.047549
   104  H    0.033413
   105  H    0.026654
   106  H    0.026122
   107  H    0.029363
   108  H    0.014611
   109  H    0.020871
   110  H    0.020228
   111  H    0.018577
   112  H    0.026708
   113  H    0.013758
   114  H    0.014925
   115  H    0.017923
   116  H    0.007012
   117  H    0.012666
   118  H    0.035230
   119  H    0.018902
   120  H    0.013980
   121  H    0.026272
   122  H    0.018243
   123  H    0.010913
   124  H    0.025539
   125  H    0.013985
   126  H    0.025049
   127  H    0.018511
   128  H    0.009278
   129  H    0.016983
   130  H    0.026896
   131  H    0.034399
   132  H    0.036529
   133  H    0.017896
   134  H    0.022819
   135  H    0.012108
   136  H    0.011043
   137  H    0.027460
   138  H    0.020670
   139  H    0.012313
   140  H    0.026871
 Sum of Mulliken charges =  -0.00000

 Dipole moment (field-independent basis, Debye):
    X=             -4.8612    Y=              8.2436    Z=             -1.5463  Tot=              9.6943
 N-N= 4.198769455673D+03 E-N= 0.000000000000D+00  KE=-9.072189322767D+03
 Leave Link  601 at Wed Apr 27 14:25:31 2022, MaxMem=  6710886400 cpu:               1.5 elap:               0.1
 (Enter /sw/apps/gaussian-16.0/g16/l9999.exe)
 1\1\GINC-BP1-COMPUTE174\SP\RZINDO CIS\STO-3G\C55H74Mg1N4O6\OF15641\27-
 Apr-2022\0\\#p ZINDO=(nstates=5)\\step_1201_chromophore_16 ZINDO\\0,1\
 Mg,0,41.163,41.76,26.924\C,0,40.381,44.018,29.67\C,0,41.832,39.41,29.3
 45\C,0,41.84,39.825,24.516\C,0,40.41,44.426,24.813\N,0,41.272,41.837,2
 9.321\C,0,40.864,42.822,30.184\C,0,40.93,42.33,31.663\C,0,41.585,40.89
 ,31.464\C,0,41.569,40.678,29.963\C,0,43.002,40.611,32.08\C,0,39.643,42
 .281,32.493\C,0,39.841,42.321,33.985\C,0,38.834,42.997,34.859\O,0,37.7

 Normal termination of Gaussian 16 at Wed Apr 27 14:25:31 2022.
