 Gaussian 16, Revision A.03,
 Gaussian 16:  ES64L-G16RevA.03 25-Dec-2016

 ------------------------------
 #p blyp/Def2SVP td=(nstates=5)
 ------------------------------

 --------------------------------------------------
 step_1251_chromophore_6 TDDFT with blyp functional
 --------------------------------------------------
 Symbolic Z-matrix:
 Charge =  0 Multiplicity = 1

                         Standard orientation:
 ---------------------------------------------------------------------
 Center     Atomic      Atomic             Coordinates (Angstroms)
 Number     Number       Type             X           Y           Z
 ---------------------------------------------------------------------
      1         12           0       -5.427892    1.078956   -0.332623
      2          6           0       -4.145606   -2.264332   -0.366101
      3          6           0       -2.165128    2.284650   -0.372387
      4          6           0       -6.701063    4.112525    0.228798
      5          6           0       -8.590485   -0.262417    0.225089
      6          7           0       -3.314814    0.018846   -0.101855
      7          6           0       -3.097802   -1.295115   -0.243604
      8          6           0       -1.558809   -1.559111   -0.452187
      9          6           0       -0.985087   -0.056341   -0.393453
     10          6           0       -2.226784    0.840712   -0.296567
     11          6           0        0.012626    0.266387    0.845149
     12          6           0       -1.276438   -2.348249   -1.748319
     13          6           0       -0.507755   -3.638924   -1.676895
     14          6           0        0.356584   -3.994893   -0.471702
     15          8           0        0.138295   -4.888759    0.356257
     16          8           0        1.357105   -3.050440   -0.306019
     17          7           0       -4.604917    2.920652   -0.235414
     18          6           0       -3.235455    3.259685   -0.334683
     19          6           0       -2.982942    4.685520   -0.313252
     20          6           0       -4.324674    5.210092   -0.171355
     21          6           0       -5.328527    4.059447   -0.082717
     22          6           0       -1.654097    5.269774   -0.228036
     23          6           0       -4.711071    6.742391   -0.165574
     24          8           0       -5.879456    7.131670   -0.255838
     25          6           0       -3.675084    7.823010   -0.314805
     26          7           0       -7.229180    1.850592    0.273802
     27          6           0       -7.537790    3.094528    0.510648
     28          6           0       -8.955103    3.427703    0.987638
     29          6           0       -9.654248    2.073302    0.871732
     30          6           0       -8.395435    1.105819    0.449630
     31          6           0       -9.200938    4.119595    2.359125
     32          6           0      -10.894769    2.023510   -0.050324
     33          6           0      -10.667259    1.633435   -1.493179
     34          7           0       -6.294022   -0.844066   -0.198845
     35          6           0       -7.591871   -1.255170   -0.014380
     36          6           0       -7.676497   -2.756249   -0.137307
     37          6           0       -6.386752   -3.090763   -0.375748
     38          6           0       -5.537405   -1.967729   -0.288711
     39          6           0       -8.926393   -3.593405    0.143146
     40          6           0       -5.623156   -4.241492   -0.580287
     41          8           0       -5.884262   -5.440193   -0.532169
     42          6           0       -4.143703   -3.743962   -0.573186
     43          6           0       -3.566816   -4.460201    0.592031
     44          8           0       -3.528374   -4.096977    1.776679
     45          8           0       -3.193938   -5.732156    0.203770
     46          6           0       -2.555960   -6.541874    1.219949
     47          6           0        2.146197   -3.304817    0.882501
     48          6           0        3.630403   -3.457345    0.502243
     49          6           0        4.721120   -3.236678    1.304389
     50          6           0        4.636326   -2.878970    2.769368
     51          6           0        6.092863   -3.513734    0.761315
     52          6           0        6.356673   -2.384454   -0.263807
     53          6           0        7.757569   -1.854057   -0.303838
     54          6           0        8.299150   -1.436496   -1.775711
     55          6           0        9.220201   -2.420705   -2.424448
     56          6           0        8.835617    0.017169   -1.830893
     57          6           0        9.981483    0.280895   -0.847096
     58          6           0       11.145814    1.029077   -1.423340
     59          6           0       11.324223    2.386158   -0.671342
     60          6           0       12.076201    3.481673   -1.569694
     61          6           0       12.071189    2.258621    0.653201
     62          6           0       13.452991    1.553567    0.742490
     63          6           0       14.458801    2.388932    1.488091
     64          6           0       15.923922    1.916921    1.218627
     65          6           0       16.345390    2.435909   -0.190969
     66          6           0       16.892360    2.170219    2.432000
     67          1           0       -1.168689    2.661799   -0.609956
     68          1           0       -7.102440    5.117998    0.371870
     69          1           0       -9.591598   -0.694857    0.160936
     70          1           0       -1.266838   -2.185006    0.391673
     71          1           0       -0.582352    0.293201   -1.343229
     72          1           0        0.941656    0.652494    0.425985
     73          1           0        0.250437   -0.666814    1.355498
     74          1           0       -0.472041    0.930739    1.560257
     75          1           0       -0.852823   -1.642194   -2.461976
     76          1           0       -2.254365   -2.704653   -2.072362
     77          1           0        0.228310   -3.615891   -2.479890
     78          1           0       -1.185722   -4.468708   -1.879165
     79          1           0       -1.489385    6.278569    0.150447
     80          1           0       -1.242527    5.087150   -1.220488
     81          1           0       -1.118733    4.670372    0.509177
     82          1           0       -2.909685    7.503730   -1.023237
     83          1           0       -3.182041    7.919698    0.652047
     84          1           0       -4.167848    8.753274   -0.597226
     85          1           0       -9.373128    4.042177    0.190436
     86          1           0       -9.952997    1.670313    1.838577
     87          1           0       -9.596256    3.416229    3.091250
     88          1           0       -9.858963    4.979940    2.232297
     89          1           0       -8.287150    4.503457    2.812591
     90          1           0      -11.359485    3.008274   -0.105709
     91          1           0      -11.706436    1.484237    0.437546
     92          1           0      -11.102211    0.641986   -1.616330
     93          1           0       -9.699474    1.950243   -1.880520
     94          1           0      -11.251499    2.382928   -2.027252
     95          1           0       -8.945062   -4.392319   -0.597860
     96          1           0       -9.758334   -2.969270   -0.184389
     97          1           0       -9.128909   -4.030169    1.121239
     98          1           0       -3.781490   -4.196254   -1.496123
     99          1           0       -3.267653   -6.974845    1.922043
    100          1           0       -1.792056   -6.055936    1.827350
    101          1           0       -1.974936   -7.343134    0.762620
    102          1           0        1.912949   -4.170911    1.500775
    103          1           0        2.033571   -2.426961    1.519053
    104          1           0        3.780053   -3.753135   -0.536515
    105          1           0        3.782722   -3.434053    3.157452
    106          1           0        4.551343   -1.828564    3.048473
    107          1           0        5.341948   -3.384942    3.427901
    108          1           0        6.227929   -4.440525    0.202987
    109          1           0        6.818323   -3.442915    1.572047
    110          1           0        5.732091   -1.497099   -0.162503
    111          1           0        6.147212   -2.903492   -1.199949
    112          1           0        8.483344   -2.543625    0.127777
    113          1           0        7.675955   -0.963109    0.318648
    114          1           0        7.416518   -1.345040   -2.409530
    115          1           0        9.268276   -3.313853   -1.802104
    116          1           0       10.260984   -2.124729   -2.556834
    117          1           0        8.837205   -2.620648   -3.425216
    118          1           0        8.024614    0.636076   -1.447475
    119          1           0        8.996728    0.235939   -2.886701
    120          1           0       10.307839   -0.701501   -0.503758
    121          1           0        9.580634    0.810732    0.017619
    122          1           0       11.092520    1.198064   -2.498053
    123          1           0       12.082094    0.486347   -1.292060
    124          1           0       10.329184    2.816103   -0.553916
    125          1           0       13.120957    3.506298   -1.258536
    126          1           0       11.566678    4.434315   -1.422818
    127          1           0       12.197072    3.217909   -2.620623
    128          1           0       11.515858    1.482355    1.179446
    129          1           0       12.065900    3.262747    1.078093
    130          1           0       13.808677    1.099163   -0.182160
    131          1           0       13.361585    0.746544    1.470766
    132          1           0       14.318944    2.221720    2.556351
    133          1           0       14.267665    3.434733    1.243693
    134          1           0       15.915783    0.843234    1.032965
    135          1           0       17.304686    2.951299   -0.151547
    136          1           0       15.629775    3.148073   -0.602184
    137          1           0       16.512536    1.571717   -0.834369
    138          1           0       16.331393    2.527207    3.295179
    139          1           0       17.748862    2.739873    2.072117
    140          1           0       17.271786    1.198634    2.746000
 ---------------------------------------------------------------------

 SCF Done:  E(RB-LYP) =  -3007.32234479     A.U. after   21 cycles

 Excitation energies and oscillator strengths:

 Excited State   1:      Singlet-A      1.7943 eV  690.98 nm  f=0.3138  <S**2>=0.000
     245 -> 248       -0.19775
     246 -> 247        0.68221
     246 <- 247       -0.15095
 This state for optimization and/or second-order correction.
 Total Energy, E(TD-HF/TD-DFT) =  -3007.25640422
 Copying the excited state density for this state as the 1-particle RhoCI density.

 Excited State   2:      Singlet-A      1.9242 eV  644.34 nm  f=0.0083  <S**2>=0.000
     244 -> 247        0.69108

 Excited State   3:      Singlet-A      1.9547 eV  634.30 nm  f=0.0147  <S**2>=0.000
     243 -> 247        0.63670
     245 -> 247        0.27040

 Excited State   4:      Singlet-A      2.0305 eV  610.62 nm  f=0.0567  <S**2>=0.000
     243 -> 247       -0.29690
     245 -> 247        0.57498
     246 -> 248        0.24969

 Excited State   5:      Singlet-A      2.0875 eV  593.92 nm  f=0.0001  <S**2>=0.000
     242 -> 247        0.70616

 The electronic state is 1-A.
 Alpha  occ. eigenvalues --  -46.27359 -18.83133 -18.80335 -18.77618 -18.75498
 Alpha  occ. eigenvalues --  -18.75483 -18.75367 -14.03329 -14.03179 -14.01635
 Alpha  occ. eigenvalues --  -14.01094 -10.04828 -10.02657  -9.99944  -9.98898
 Alpha  occ. eigenvalues --   -9.97704  -9.97034  -9.96992  -9.96817  -9.96358
 Alpha  occ. eigenvalues --   -9.96286  -9.95710  -9.95515  -9.95130  -9.94682
 Alpha  occ. eigenvalues --   -9.94500  -9.94376  -9.94270  -9.94044  -9.93913
 Alpha  occ. eigenvalues --   -9.93838  -9.93765  -9.93742  -9.93657  -9.93514
 Alpha  occ. eigenvalues --   -9.93493  -9.93489  -9.93456  -9.92934  -9.92740
 Alpha  occ. eigenvalues --   -9.92697  -9.92643  -9.92356  -9.92351  -9.92325
 Alpha  occ. eigenvalues --   -9.92014  -9.91823  -9.91784  -9.91761  -9.91739
 Alpha  occ. eigenvalues --   -9.91669  -9.91656  -9.91110  -9.91083  -9.91079
 Alpha  occ. eigenvalues --   -9.90983  -9.90925  -9.90910  -9.90820  -9.90759
 Alpha  occ. eigenvalues --   -9.90741  -9.90712  -9.90553  -9.90524  -9.90467
 Alpha  occ. eigenvalues --   -9.90444  -2.92058  -1.72458  -1.71964  -1.71769
 Alpha  occ. eigenvalues --   -0.98400  -0.95839  -0.91019  -0.90851  -0.90014
 Alpha  occ. eigenvalues --   -0.87586  -0.87086  -0.86013  -0.85218  -0.84341
 Alpha  occ. eigenvalues --   -0.75940  -0.73830  -0.73225  -0.72962  -0.72677
 Alpha  occ. eigenvalues --   -0.72313  -0.71994  -0.70759  -0.70575  -0.70520
 Alpha  occ. eigenvalues --   -0.69460  -0.68621  -0.67896  -0.67688  -0.67026
 Alpha  occ. eigenvalues --   -0.66418  -0.65813  -0.65084  -0.64540  -0.64247
 Alpha  occ. eigenvalues --   -0.64123  -0.62550  -0.62334  -0.61285  -0.60988
 Alpha  occ. eigenvalues --   -0.60472  -0.60259  -0.59710  -0.59588  -0.58927
 Alpha  occ. eigenvalues --   -0.58094  -0.57754  -0.56789  -0.55436  -0.55230
 Alpha  occ. eigenvalues --   -0.54124  -0.53605  -0.52771  -0.52385  -0.51651
 Alpha  occ. eigenvalues --   -0.51414  -0.51035  -0.50115  -0.49931  -0.49816
 Alpha  occ. eigenvalues --   -0.48893  -0.47652  -0.47579  -0.47207  -0.46938
 Alpha  occ. eigenvalues --   -0.46570  -0.46093  -0.45422  -0.45077  -0.44260
 Alpha  occ. eigenvalues --   -0.43989  -0.43284  -0.43091  -0.42638  -0.42414
 Alpha  occ. eigenvalues --   -0.42303  -0.42110  -0.41639  -0.41519  -0.41037
 Alpha  occ. eigenvalues --   -0.40856  -0.40727  -0.40651  -0.40418  -0.40191
 Alpha  occ. eigenvalues --   -0.39945  -0.39489  -0.39267  -0.39228  -0.38992
 Alpha  occ. eigenvalues --   -0.38938  -0.38627  -0.38465  -0.38409  -0.38035
 Alpha  occ. eigenvalues --   -0.37837  -0.37755  -0.37439  -0.37406  -0.37035
 Alpha  occ. eigenvalues --   -0.36984  -0.36880  -0.36702  -0.36571  -0.36438
 Alpha  occ. eigenvalues --   -0.36190  -0.36036  -0.35780  -0.35467  -0.35304
 Alpha  occ. eigenvalues --   -0.35147  -0.35137  -0.34987  -0.34923  -0.34718
 Alpha  occ. eigenvalues --   -0.34550  -0.34433  -0.34154  -0.34020  -0.33773
 Alpha  occ. eigenvalues --   -0.33753  -0.33622  -0.33554  -0.33059  -0.32960
 Alpha  occ. eigenvalues --   -0.32817  -0.32720  -0.32656  -0.32373  -0.32322
 Alpha  occ. eigenvalues --   -0.32280  -0.31936  -0.31755  -0.31622  -0.31538
 Alpha  occ. eigenvalues --   -0.31481  -0.31044  -0.30862  -0.30796  -0.30627
 Alpha  occ. eigenvalues --   -0.30235  -0.30130  -0.30060  -0.29800  -0.29752
 Alpha  occ. eigenvalues --   -0.29659  -0.29386  -0.29211  -0.28855  -0.28473
 Alpha  occ. eigenvalues --   -0.28162  -0.27916  -0.27884  -0.27792  -0.27716
 Alpha  occ. eigenvalues --   -0.27581  -0.26841  -0.26778  -0.26429  -0.26382
 Alpha  occ. eigenvalues --   -0.25990  -0.25979  -0.25704  -0.25188  -0.24976
 Alpha  occ. eigenvalues --   -0.24889  -0.24079  -0.23607  -0.23281  -0.23258
 Alpha  occ. eigenvalues --   -0.23022  -0.22508  -0.22043  -0.21164  -0.20658
 Alpha  occ. eigenvalues --   -0.20516  -0.19095  -0.18523  -0.18395  -0.17294
 Alpha  occ. eigenvalues --   -0.15630
 Alpha virt. eigenvalues --   -0.11425  -0.06856  -0.06394  -0.04787  -0.04007
 Alpha virt. eigenvalues --   -0.02909  -0.02227  -0.01585  -0.01425   0.00458
 Alpha virt. eigenvalues --    0.01457   0.01853   0.02234   0.02397   0.02690

 Mulliken charges:
               1
     1  Mg   0.715944
     2  C    0.080636
     3  C   -0.052851
     4  C   -0.078076
     5  C   -0.064090
     6  N   -0.171614
     7  C   -0.108281
     8  C    0.011395
     9  C   -0.008775
    10  C   -0.022232
    11  C    0.119700
    12  C    0.154761
    13  C    0.159718
    14  C    0.059270
    15  O   -0.190914
    16  O   -0.275839
    17  N   -0.325248
    18  C    0.135235
    19  C   -0.134497
    20  C   -0.014047
    21  C    0.129905
    22  C    0.176331
    23  C   -0.064765
    24  O   -0.178684
    25  C    0.132879
    26  N   -0.222460
    27  C    0.034273
    28  C    0.051105
    29  C    0.016087
    30  C    0.062863
    31  C    0.143899
    32  C    0.053231
    33  C    0.119040
    34  N   -0.253583
    35  C    0.045704
    36  C   -0.162938
    37  C    0.146466
    38  C    0.071072
    39  C    0.169914
    40  C   -0.113653
    41  O   -0.127221
    42  C    0.027250
    43  C    0.119495
    44  O   -0.201269
    45  O   -0.260040
    46  C    0.237141
    47  C    0.294526
    48  C   -0.106421
    49  C   -0.153493
    50  C    0.132660
    51  C    0.175870
    52  C    0.038324
    53  C    0.099947
    54  C   -0.090636
    55  C    0.131734
    56  C    0.086562
    57  C    0.069368
    58  C    0.133521
    59  C   -0.086170
    60  C    0.080541
    61  C    0.135065
    62  C    0.037780
    63  C    0.079661
    64  C   -0.118586
    65  C    0.095992
    66  C    0.137058
    67  H   -0.059084
    68  H   -0.050358
    69  H   -0.062899
    70  H    0.007576
    71  H   -0.020004
    72  H   -0.001483
    73  H   -0.004084
    74  H    0.005267
    75  H   -0.024350
    76  H   -0.021373
    77  H   -0.012499
    78  H    0.001457
    79  H   -0.007270
    80  H    0.010769
    81  H    0.007208
    82  H    0.007327
    83  H    0.007340
    84  H    0.002536
    85  H   -0.022839
    86  H   -0.027369
    87  H   -0.011810
    88  H   -0.001629
    89  H   -0.009458
    90  H   -0.033997
    91  H   -0.035848
    92  H    0.009042
    93  H   -0.003281
    94  H   -0.031745
    95  H   -0.004424
    96  H   -0.024182
    97  H    0.030713
    98  H    0.000849
    99  H   -0.001080
   100  H    0.007825
   101  H   -0.003127
   102  H    0.028364
   103  H   -0.006356
   104  H   -0.039319
   105  H   -0.020140
   106  H    0.013828
   107  H   -0.016660
   108  H   -0.016209
   109  H   -0.038997
   110  H   -0.016614
   111  H   -0.026475
   112  H   -0.033168
   113  H   -0.039977
   114  H   -0.045187
   115  H   -0.025646
   116  H   -0.015847
   117  H   -0.014792
   118  H   -0.047449
   119  H   -0.028742
   120  H   -0.034192
   121  H   -0.015980
   122  H   -0.040190
   123  H   -0.048226
   124  H   -0.042157
   125  H   -0.022993
   126  H   -0.007601
   127  H   -0.026217
   128  H   -0.044630
   129  H   -0.019266
   130  H   -0.010563
   131  H   -0.037727
   132  H   -0.040338
   133  H   -0.023019
   134  H   -0.039050
   135  H   -0.030823
   136  H   -0.003791
   137  H   -0.012563
   138  H   -0.012913
   139  H   -0.013442
   140  H   -0.024190
 Sum of Mulliken charges =  -0.00000

 Dipole moment (field-independent basis, Debye):
    X=              2.8776    Y=              3.1711    Z=             -1.3434  Tot=              4.4879
 Quadrupole moment (field-independent basis, Debye-Ang):
   XX=           -380.4856   YY=           -443.1969   ZZ=           -401.0601
   XY=            -19.4626   XZ=              4.5939   YZ=              5.7946

 Normal termination of Gaussian 16 at Wed May  4 03:17:20 2022.
