 Gaussian 16, Revision A.03,
 Gaussian 16:  ES64L-G16RevA.03 25-Dec-2016

 -----------------------------------
 #p cam-b3lyp/Def2SVP td=(nstates=5)
 -----------------------------------

 -------------------------------------------------------
 step_1251_chromophore_6 TDDFT with cam-b3lyp functional
 -------------------------------------------------------
 Symbolic Z-matrix:
 Charge =  0 Multiplicity = 1

                         Standard orientation:
 ---------------------------------------------------------------------
 Center     Atomic      Atomic             Coordinates (Angstroms)
 Number     Number       Type             X           Y           Z
 ---------------------------------------------------------------------
      1         12           0       -5.427892    1.078956   -0.332623
      2          6           0       -4.145606   -2.264332   -0.366101
      3          6           0       -2.165128    2.284650   -0.372387
      4          6           0       -6.701063    4.112525    0.228798
      5          6           0       -8.590485   -0.262417    0.225089
      6          7           0       -3.314814    0.018846   -0.101855
      7          6           0       -3.097802   -1.295115   -0.243604
      8          6           0       -1.558809   -1.559111   -0.452187
      9          6           0       -0.985087   -0.056341   -0.393453
     10          6           0       -2.226784    0.840712   -0.296567
     11          6           0        0.012626    0.266387    0.845149
     12          6           0       -1.276438   -2.348249   -1.748319
     13          6           0       -0.507755   -3.638924   -1.676895
     14          6           0        0.356584   -3.994893   -0.471702
     15          8           0        0.138295   -4.888759    0.356257
     16          8           0        1.357105   -3.050440   -0.306019
     17          7           0       -4.604917    2.920652   -0.235414
     18          6           0       -3.235455    3.259685   -0.334683
     19          6           0       -2.982942    4.685520   -0.313252
     20          6           0       -4.324674    5.210092   -0.171355
     21          6           0       -5.328527    4.059447   -0.082717
     22          6           0       -1.654097    5.269774   -0.228036
     23          6           0       -4.711071    6.742391   -0.165574
     24          8           0       -5.879456    7.131670   -0.255838
     25          6           0       -3.675084    7.823010   -0.314805
     26          7           0       -7.229180    1.850592    0.273802
     27          6           0       -7.537790    3.094528    0.510648
     28          6           0       -8.955103    3.427703    0.987638
     29          6           0       -9.654248    2.073302    0.871732
     30          6           0       -8.395435    1.105819    0.449630
     31          6           0       -9.200938    4.119595    2.359125
     32          6           0      -10.894769    2.023510   -0.050324
     33          6           0      -10.667259    1.633435   -1.493179
     34          7           0       -6.294022   -0.844066   -0.198845
     35          6           0       -7.591871   -1.255170   -0.014380
     36          6           0       -7.676497   -2.756249   -0.137307
     37          6           0       -6.386752   -3.090763   -0.375748
     38          6           0       -5.537405   -1.967729   -0.288711
     39          6           0       -8.926393   -3.593405    0.143146
     40          6           0       -5.623156   -4.241492   -0.580287
     41          8           0       -5.884262   -5.440193   -0.532169
     42          6           0       -4.143703   -3.743962   -0.573186
     43          6           0       -3.566816   -4.460201    0.592031
     44          8           0       -3.528374   -4.096977    1.776679
     45          8           0       -3.193938   -5.732156    0.203770
     46          6           0       -2.555960   -6.541874    1.219949
     47          6           0        2.146197   -3.304817    0.882501
     48          6           0        3.630403   -3.457345    0.502243
     49          6           0        4.721120   -3.236678    1.304389
     50          6           0        4.636326   -2.878970    2.769368
     51          6           0        6.092863   -3.513734    0.761315
     52          6           0        6.356673   -2.384454   -0.263807
     53          6           0        7.757569   -1.854057   -0.303838
     54          6           0        8.299150   -1.436496   -1.775711
     55          6           0        9.220201   -2.420705   -2.424448
     56          6           0        8.835617    0.017169   -1.830893
     57          6           0        9.981483    0.280895   -0.847096
     58          6           0       11.145814    1.029077   -1.423340
     59          6           0       11.324223    2.386158   -0.671342
     60          6           0       12.076201    3.481673   -1.569694
     61          6           0       12.071189    2.258621    0.653201
     62          6           0       13.452991    1.553567    0.742490
     63          6           0       14.458801    2.388932    1.488091
     64          6           0       15.923922    1.916921    1.218627
     65          6           0       16.345390    2.435909   -0.190969
     66          6           0       16.892360    2.170219    2.432000
     67          1           0       -1.168689    2.661799   -0.609956
     68          1           0       -7.102440    5.117998    0.371870
     69          1           0       -9.591598   -0.694857    0.160936
     70          1           0       -1.266838   -2.185006    0.391673
     71          1           0       -0.582352    0.293201   -1.343229
     72          1           0        0.941656    0.652494    0.425985
     73          1           0        0.250437   -0.666814    1.355498
     74          1           0       -0.472041    0.930739    1.560257
     75          1           0       -0.852823   -1.642194   -2.461976
     76          1           0       -2.254365   -2.704653   -2.072362
     77          1           0        0.228310   -3.615891   -2.479890
     78          1           0       -1.185722   -4.468708   -1.879165
     79          1           0       -1.489385    6.278569    0.150447
     80          1           0       -1.242527    5.087150   -1.220488
     81          1           0       -1.118733    4.670372    0.509177
     82          1           0       -2.909685    7.503730   -1.023237
     83          1           0       -3.182041    7.919698    0.652047
     84          1           0       -4.167848    8.753274   -0.597226
     85          1           0       -9.373128    4.042177    0.190436
     86          1           0       -9.952997    1.670313    1.838577
     87          1           0       -9.596256    3.416229    3.091250
     88          1           0       -9.858963    4.979940    2.232297
     89          1           0       -8.287150    4.503457    2.812591
     90          1           0      -11.359485    3.008274   -0.105709
     91          1           0      -11.706436    1.484237    0.437546
     92          1           0      -11.102211    0.641986   -1.616330
     93          1           0       -9.699474    1.950243   -1.880520
     94          1           0      -11.251499    2.382928   -2.027252
     95          1           0       -8.945062   -4.392319   -0.597860
     96          1           0       -9.758334   -2.969270   -0.184389
     97          1           0       -9.128909   -4.030169    1.121239
     98          1           0       -3.781490   -4.196254   -1.496123
     99          1           0       -3.267653   -6.974845    1.922043
    100          1           0       -1.792056   -6.055936    1.827350
    101          1           0       -1.974936   -7.343134    0.762620
    102          1           0        1.912949   -4.170911    1.500775
    103          1           0        2.033571   -2.426961    1.519053
    104          1           0        3.780053   -3.753135   -0.536515
    105          1           0        3.782722   -3.434053    3.157452
    106          1           0        4.551343   -1.828564    3.048473
    107          1           0        5.341948   -3.384942    3.427901
    108          1           0        6.227929   -4.440525    0.202987
    109          1           0        6.818323   -3.442915    1.572047
    110          1           0        5.732091   -1.497099   -0.162503
    111          1           0        6.147212   -2.903492   -1.199949
    112          1           0        8.483344   -2.543625    0.127777
    113          1           0        7.675955   -0.963109    0.318648
    114          1           0        7.416518   -1.345040   -2.409530
    115          1           0        9.268276   -3.313853   -1.802104
    116          1           0       10.260984   -2.124729   -2.556834
    117          1           0        8.837205   -2.620648   -3.425216
    118          1           0        8.024614    0.636076   -1.447475
    119          1           0        8.996728    0.235939   -2.886701
    120          1           0       10.307839   -0.701501   -0.503758
    121          1           0        9.580634    0.810732    0.017619
    122          1           0       11.092520    1.198064   -2.498053
    123          1           0       12.082094    0.486347   -1.292060
    124          1           0       10.329184    2.816103   -0.553916
    125          1           0       13.120957    3.506298   -1.258536
    126          1           0       11.566678    4.434315   -1.422818
    127          1           0       12.197072    3.217909   -2.620623
    128          1           0       11.515858    1.482355    1.179446
    129          1           0       12.065900    3.262747    1.078093
    130          1           0       13.808677    1.099163   -0.182160
    131          1           0       13.361585    0.746544    1.470766
    132          1           0       14.318944    2.221720    2.556351
    133          1           0       14.267665    3.434733    1.243693
    134          1           0       15.915783    0.843234    1.032965
    135          1           0       17.304686    2.951299   -0.151547
    136          1           0       15.629775    3.148073   -0.602184
    137          1           0       16.512536    1.571717   -0.834369
    138          1           0       16.331393    2.527207    3.295179
    139          1           0       17.748862    2.739873    2.072117
    140          1           0       17.271786    1.198634    2.746000
 ---------------------------------------------------------------------

 SCF Done:  E(RCAM-B3LYP) =  -3007.11152135     A.U. after   17 cycles

 Excitation energies and oscillator strengths:

 Excited State   1:      Singlet-A      1.6828 eV  736.79 nm  f=0.3959  <S**2>=0.000
     245 -> 248        0.18752
     246 -> 247        0.68403
     245 <- 248        0.11124
 This state for optimization and/or second-order correction.
 Total Energy, E(TD-HF/TD-DFT) =  -3007.04968127
 Copying the excited state density for this state as the 1-particle RhoCI density.

 Excited State   2:      Singlet-A      2.2514 eV  550.71 nm  f=0.0882  <S**2>=0.000
     245 -> 247        0.62539
     246 -> 248       -0.32066

 Excited State   3:      Singlet-A      3.3891 eV  365.83 nm  f=0.0568  <S**2>=0.000
     240 -> 247       -0.21828
     240 -> 249       -0.18837
     240 -> 251       -0.10453
     242 -> 247        0.37252
     242 -> 249        0.19131
     243 -> 247       -0.35212
     243 -> 249       -0.14087
     246 -> 248        0.20149

 Excited State   4:      Singlet-A      3.4545 eV  358.90 nm  f=0.5668  <S**2>=0.000
     240 -> 247        0.16547
     243 -> 247        0.23225
     245 -> 247        0.27592
     246 -> 248        0.56172
     245 <- 247       -0.10281

 Excited State   5:      Singlet-A      3.5596 eV  348.31 nm  f=0.0833  <S**2>=0.000
     240 -> 247       -0.19721
     242 -> 247        0.34666
     243 -> 247        0.52011
     246 -> 248       -0.13360

 The electronic state is 1-A.
 Alpha  occ. eigenvalues --  -46.88884 -19.26054 -19.23212 -19.20678 -19.18722
 Alpha  occ. eigenvalues --  -19.18680 -19.18475 -14.42104 -14.41997 -14.40143
 Alpha  occ. eigenvalues --  -14.39521 -10.40260 -10.38183 -10.35204 -10.34233
 Alpha  occ. eigenvalues --  -10.31720 -10.31501 -10.31478 -10.31247 -10.30928
 Alpha  occ. eigenvalues --  -10.30745 -10.29939 -10.29870 -10.29009 -10.28978
 Alpha  occ. eigenvalues --  -10.28892 -10.28541 -10.28497 -10.28418 -10.28341
 Alpha  occ. eigenvalues --  -10.28258 -10.28243 -10.27904 -10.27784 -10.27615
 Alpha  occ. eigenvalues --  -10.27418 -10.27411 -10.27298 -10.27109 -10.26614
 Alpha  occ. eigenvalues --  -10.26474 -10.26349 -10.26091 -10.26031 -10.25979
 Alpha  occ. eigenvalues --  -10.25971 -10.25803 -10.25596 -10.25538 -10.25472
 Alpha  occ. eigenvalues --  -10.25405 -10.25173 -10.24920 -10.24786 -10.24705
 Alpha  occ. eigenvalues --  -10.24618 -10.24596 -10.24586 -10.24472 -10.24435
 Alpha  occ. eigenvalues --  -10.24410 -10.24375 -10.24336 -10.24201 -10.24190
 Alpha  occ. eigenvalues --  -10.24122  -3.17488  -1.92364  -1.91956  -1.91795
 Alpha  occ. eigenvalues --   -1.16873  -1.14339  -1.09404  -1.09250  -1.07915
 Alpha  occ. eigenvalues --   -1.05475  -1.04715  -1.03628  -1.02825  -1.01860
 Alpha  occ. eigenvalues --   -0.93126  -0.90734  -0.90074  -0.89779  -0.89455
 Alpha  occ. eigenvalues --   -0.88998  -0.88723  -0.87277  -0.87198  -0.87111
 Alpha  occ. eigenvalues --   -0.85921  -0.84938  -0.84183  -0.83782  -0.83154
 Alpha  occ. eigenvalues --   -0.82500  -0.82064  -0.81006  -0.80382  -0.80064
 Alpha  occ. eigenvalues --   -0.79922  -0.78344  -0.77985  -0.76668  -0.76395
 Alpha  occ. eigenvalues --   -0.75785  -0.75658  -0.74960  -0.74921  -0.74197
 Alpha  occ. eigenvalues --   -0.73130  -0.72766  -0.71682  -0.70184  -0.69856
 Alpha  occ. eigenvalues --   -0.68772  -0.68219  -0.67273  -0.66741  -0.65989
 Alpha  occ. eigenvalues --   -0.65654  -0.64919  -0.64152  -0.63889  -0.63668
 Alpha  occ. eigenvalues --   -0.62861  -0.61448  -0.61309  -0.60926  -0.60476
 Alpha  occ. eigenvalues --   -0.60216  -0.59544  -0.59016  -0.58582  -0.57696
 Alpha  occ. eigenvalues --   -0.57351  -0.56545  -0.56172  -0.55945  -0.55628
 Alpha  occ. eigenvalues --   -0.55254  -0.55002  -0.54849  -0.54629  -0.53904
 Alpha  occ. eigenvalues --   -0.53603  -0.53347  -0.53313  -0.53092  -0.52918
 Alpha  occ. eigenvalues --   -0.52560  -0.52546  -0.52105  -0.51856  -0.51811
 Alpha  occ. eigenvalues --   -0.51427  -0.51122  -0.50830  -0.50762  -0.50550
 Alpha  occ. eigenvalues --   -0.50305  -0.50254  -0.50083  -0.49719  -0.49262
 Alpha  occ. eigenvalues --   -0.49204  -0.49116  -0.49053  -0.48888  -0.48558
 Alpha  occ. eigenvalues --   -0.48286  -0.48257  -0.48200  -0.48086  -0.47736
 Alpha  occ. eigenvalues --   -0.47343  -0.47168  -0.47059  -0.46768  -0.46527
 Alpha  occ. eigenvalues --   -0.46488  -0.46455  -0.46064  -0.45951  -0.45473
 Alpha  occ. eigenvalues --   -0.45443  -0.45332  -0.45290  -0.44838  -0.44724
 Alpha  occ. eigenvalues --   -0.44533  -0.44424  -0.44381  -0.44002  -0.43890
 Alpha  occ. eigenvalues --   -0.43819  -0.43721  -0.43271  -0.43144  -0.43092
 Alpha  occ. eigenvalues --   -0.42858  -0.42577  -0.42483  -0.42197  -0.41919
 Alpha  occ. eigenvalues --   -0.41883  -0.41571  -0.41366  -0.41321  -0.41081
 Alpha  occ. eigenvalues --   -0.40982  -0.40654  -0.40300  -0.40013  -0.39904
 Alpha  occ. eigenvalues --   -0.39441  -0.39160  -0.38990  -0.38755  -0.38651
 Alpha  occ. eigenvalues --   -0.38601  -0.37714  -0.37653  -0.37609  -0.37145
 Alpha  occ. eigenvalues --   -0.36980  -0.36739  -0.36444  -0.35803  -0.35646
 Alpha  occ. eigenvalues --   -0.35560  -0.34824  -0.34663  -0.34520  -0.33897
 Alpha  occ. eigenvalues --   -0.33674  -0.33105  -0.32819  -0.31258  -0.30856
 Alpha  occ. eigenvalues --   -0.30633  -0.30210  -0.29938  -0.28697  -0.24067
 Alpha  occ. eigenvalues --   -0.20794
 Alpha virt. eigenvalues --   -0.08472  -0.01779   0.00130   0.02050   0.02247
 Alpha virt. eigenvalues --    0.03838   0.05126   0.05972   0.06028   0.06975
 Alpha virt. eigenvalues --    0.07654   0.08609   0.08674   0.08877   0.09111

 Mulliken charges:
               1
     1  Mg   0.848427
     2  C    0.048604
     3  C   -0.067752
     4  C   -0.096796
     5  C   -0.074007
     6  N   -0.238789
     7  C   -0.050640
     8  C   -0.041055
     9  C   -0.059870
    10  C   -0.001563
    11  C    0.067098
    12  C    0.100191
    13  C    0.090626
    14  C    0.136487
    15  O   -0.233133
    16  O   -0.337073
    17  N   -0.415062
    18  C    0.144684
    19  C   -0.136325
    20  C   -0.074922
    21  C    0.155965
    22  C    0.103937
    23  C    0.013138
    24  O   -0.218844
    25  C    0.051365
    26  N   -0.300249
    27  C    0.057711
    28  C   -0.009545
    29  C   -0.028445
    30  C    0.076211
    31  C    0.084902
    32  C   -0.003584
    33  C    0.050023
    34  N   -0.339745
    35  C    0.050749
    36  C   -0.157312
    37  C    0.060790
    38  C    0.104542
    39  C    0.125031
    40  C   -0.011618
    41  O   -0.163712
    42  C   -0.053119
    43  C    0.208169
    44  O   -0.236823
    45  O   -0.322291
    46  C    0.196424
    47  C    0.259043
    48  C   -0.121323
    49  C   -0.181909
    50  C    0.068610
    51  C    0.113250
    52  C   -0.009119
    53  C    0.043612
    54  C   -0.145134
    55  C    0.068986
    56  C    0.040245
    57  C    0.010675
    58  C    0.079598
    59  C   -0.140627
    60  C    0.029197
    61  C    0.077886
    62  C   -0.018097
    63  C    0.029039
    64  C   -0.175408
    65  C    0.038840
    66  C    0.076135
    67  H   -0.022530
    68  H   -0.010108
    69  H   -0.029834
    70  H    0.038734
    71  H    0.012527
    72  H    0.021590
    73  H    0.015853
    74  H    0.030490
    75  H    0.008115
    76  H    0.009328
    77  H    0.021743
    78  H    0.033041
    79  H    0.022985
    80  H    0.038313
    81  H    0.035653
    82  H    0.033510
    83  H    0.033277
    84  H    0.037371
    85  H    0.013072
    86  H    0.008477
    87  H    0.012985
    88  H    0.022524
    89  H    0.016711
    90  H   -0.004320
    91  H   -0.005088
    92  H    0.031390
    93  H    0.021103
    94  H   -0.005924
    95  H    0.022717
    96  H   -0.000883
    97  H    0.055897
    98  H    0.042668
    99  H    0.022496
   100  H    0.031323
   101  H    0.020565
   102  H    0.060940
   103  H    0.017793
   104  H   -0.005720
   105  H    0.004427
   106  H    0.038523
   107  H    0.010821
   108  H    0.015086
   109  H   -0.007590
   110  H    0.011293
   111  H   -0.000658
   112  H   -0.006330
   113  H   -0.011103
   114  H   -0.011186
   115  H   -0.000957
   116  H    0.007631
   117  H    0.010126
   118  H   -0.018030
   119  H   -0.000793
   120  H   -0.006029
   121  H    0.010273
   122  H   -0.010362
   123  H   -0.019189
   124  H   -0.009237
   125  H   -0.005941
   126  H    0.016219
   127  H   -0.001049
   128  H   -0.014423
   129  H    0.009068
   130  H    0.013640
   131  H   -0.007127
   132  H   -0.011842
   133  H    0.002376
   134  H   -0.006291
   135  H   -0.005744
   136  H    0.017064
   137  H    0.010513
   138  H    0.011256
   139  H    0.010084
   140  H    0.000398
 Sum of Mulliken charges =  -0.00000

 Dipole moment (field-independent basis, Debye):
    X=              3.3163    Y=              3.6080    Z=             -1.4733  Tot=              5.1172
 Quadrupole moment (field-independent basis, Debye-Ang):
   XX=           -380.8966   YY=           -439.6244   ZZ=           -400.5859
   XY=            -20.5447   XZ=              4.6801   YZ=              6.2695

 Normal termination of Gaussian 16 at Wed May  4 02:16:42 2022.
