 Gaussian 16, Revision A.03,
 Gaussian 16:  ES64L-G16RevA.03 25-Dec-2016

 ---------------------------------
 #p PBE1PBE/Def2SVP td=(nstates=5)
 ---------------------------------

 -----------------------------------------------------
 step_1251_chromophore_6 TDDFT with PBE1PBE functional
 -----------------------------------------------------
 Symbolic Z-matrix:
 Charge =  0 Multiplicity = 1

                         Standard orientation:
 ---------------------------------------------------------------------
 Center     Atomic      Atomic             Coordinates (Angstroms)
 Number     Number       Type             X           Y           Z
 ---------------------------------------------------------------------
      1         12           0       -5.427892    1.078956   -0.332623
      2          6           0       -4.145606   -2.264332   -0.366101
      3          6           0       -2.165128    2.284650   -0.372387
      4          6           0       -6.701063    4.112525    0.228798
      5          6           0       -8.590485   -0.262417    0.225089
      6          7           0       -3.314814    0.018846   -0.101855
      7          6           0       -3.097802   -1.295115   -0.243604
      8          6           0       -1.558809   -1.559111   -0.452187
      9          6           0       -0.985087   -0.056341   -0.393453
     10          6           0       -2.226784    0.840712   -0.296567
     11          6           0        0.012626    0.266387    0.845149
     12          6           0       -1.276438   -2.348249   -1.748319
     13          6           0       -0.507755   -3.638924   -1.676895
     14          6           0        0.356584   -3.994893   -0.471702
     15          8           0        0.138295   -4.888759    0.356257
     16          8           0        1.357105   -3.050440   -0.306019
     17          7           0       -4.604917    2.920652   -0.235414
     18          6           0       -3.235455    3.259685   -0.334683
     19          6           0       -2.982942    4.685520   -0.313252
     20          6           0       -4.324674    5.210092   -0.171355
     21          6           0       -5.328527    4.059447   -0.082717
     22          6           0       -1.654097    5.269774   -0.228036
     23          6           0       -4.711071    6.742391   -0.165574
     24          8           0       -5.879456    7.131670   -0.255838
     25          6           0       -3.675084    7.823010   -0.314805
     26          7           0       -7.229180    1.850592    0.273802
     27          6           0       -7.537790    3.094528    0.510648
     28          6           0       -8.955103    3.427703    0.987638
     29          6           0       -9.654248    2.073302    0.871732
     30          6           0       -8.395435    1.105819    0.449630
     31          6           0       -9.200938    4.119595    2.359125
     32          6           0      -10.894769    2.023510   -0.050324
     33          6           0      -10.667259    1.633435   -1.493179
     34          7           0       -6.294022   -0.844066   -0.198845
     35          6           0       -7.591871   -1.255170   -0.014380
     36          6           0       -7.676497   -2.756249   -0.137307
     37          6           0       -6.386752   -3.090763   -0.375748
     38          6           0       -5.537405   -1.967729   -0.288711
     39          6           0       -8.926393   -3.593405    0.143146
     40          6           0       -5.623156   -4.241492   -0.580287
     41          8           0       -5.884262   -5.440193   -0.532169
     42          6           0       -4.143703   -3.743962   -0.573186
     43          6           0       -3.566816   -4.460201    0.592031
     44          8           0       -3.528374   -4.096977    1.776679
     45          8           0       -3.193938   -5.732156    0.203770
     46          6           0       -2.555960   -6.541874    1.219949
     47          6           0        2.146197   -3.304817    0.882501
     48          6           0        3.630403   -3.457345    0.502243
     49          6           0        4.721120   -3.236678    1.304389
     50          6           0        4.636326   -2.878970    2.769368
     51          6           0        6.092863   -3.513734    0.761315
     52          6           0        6.356673   -2.384454   -0.263807
     53          6           0        7.757569   -1.854057   -0.303838
     54          6           0        8.299150   -1.436496   -1.775711
     55          6           0        9.220201   -2.420705   -2.424448
     56          6           0        8.835617    0.017169   -1.830893
     57          6           0        9.981483    0.280895   -0.847096
     58          6           0       11.145814    1.029077   -1.423340
     59          6           0       11.324223    2.386158   -0.671342
     60          6           0       12.076201    3.481673   -1.569694
     61          6           0       12.071189    2.258621    0.653201
     62          6           0       13.452991    1.553567    0.742490
     63          6           0       14.458801    2.388932    1.488091
     64          6           0       15.923922    1.916921    1.218627
     65          6           0       16.345390    2.435909   -0.190969
     66          6           0       16.892360    2.170219    2.432000
     67          1           0       -1.168689    2.661799   -0.609956
     68          1           0       -7.102440    5.117998    0.371870
     69          1           0       -9.591598   -0.694857    0.160936
     70          1           0       -1.266838   -2.185006    0.391673
     71          1           0       -0.582352    0.293201   -1.343229
     72          1           0        0.941656    0.652494    0.425985
     73          1           0        0.250437   -0.666814    1.355498
     74          1           0       -0.472041    0.930739    1.560257
     75          1           0       -0.852823   -1.642194   -2.461976
     76          1           0       -2.254365   -2.704653   -2.072362
     77          1           0        0.228310   -3.615891   -2.479890
     78          1           0       -1.185722   -4.468708   -1.879165
     79          1           0       -1.489385    6.278569    0.150447
     80          1           0       -1.242527    5.087150   -1.220488
     81          1           0       -1.118733    4.670372    0.509177
     82          1           0       -2.909685    7.503730   -1.023237
     83          1           0       -3.182041    7.919698    0.652047
     84          1           0       -4.167848    8.753274   -0.597226
     85          1           0       -9.373128    4.042177    0.190436
     86          1           0       -9.952997    1.670313    1.838577
     87          1           0       -9.596256    3.416229    3.091250
     88          1           0       -9.858963    4.979940    2.232297
     89          1           0       -8.287150    4.503457    2.812591
     90          1           0      -11.359485    3.008274   -0.105709
     91          1           0      -11.706436    1.484237    0.437546
     92          1           0      -11.102211    0.641986   -1.616330
     93          1           0       -9.699474    1.950243   -1.880520
     94          1           0      -11.251499    2.382928   -2.027252
     95          1           0       -8.945062   -4.392319   -0.597860
     96          1           0       -9.758334   -2.969270   -0.184389
     97          1           0       -9.128909   -4.030169    1.121239
     98          1           0       -3.781490   -4.196254   -1.496123
     99          1           0       -3.267653   -6.974845    1.922043
    100          1           0       -1.792056   -6.055936    1.827350
    101          1           0       -1.974936   -7.343134    0.762620
    102          1           0        1.912949   -4.170911    1.500775
    103          1           0        2.033571   -2.426961    1.519053
    104          1           0        3.780053   -3.753135   -0.536515
    105          1           0        3.782722   -3.434053    3.157452
    106          1           0        4.551343   -1.828564    3.048473
    107          1           0        5.341948   -3.384942    3.427901
    108          1           0        6.227929   -4.440525    0.202987
    109          1           0        6.818323   -3.442915    1.572047
    110          1           0        5.732091   -1.497099   -0.162503
    111          1           0        6.147212   -2.903492   -1.199949
    112          1           0        8.483344   -2.543625    0.127777
    113          1           0        7.675955   -0.963109    0.318648
    114          1           0        7.416518   -1.345040   -2.409530
    115          1           0        9.268276   -3.313853   -1.802104
    116          1           0       10.260984   -2.124729   -2.556834
    117          1           0        8.837205   -2.620648   -3.425216
    118          1           0        8.024614    0.636076   -1.447475
    119          1           0        8.996728    0.235939   -2.886701
    120          1           0       10.307839   -0.701501   -0.503758
    121          1           0        9.580634    0.810732    0.017619
    122          1           0       11.092520    1.198064   -2.498053
    123          1           0       12.082094    0.486347   -1.292060
    124          1           0       10.329184    2.816103   -0.553916
    125          1           0       13.120957    3.506298   -1.258536
    126          1           0       11.566678    4.434315   -1.422818
    127          1           0       12.197072    3.217909   -2.620623
    128          1           0       11.515858    1.482355    1.179446
    129          1           0       12.065900    3.262747    1.078093
    130          1           0       13.808677    1.099163   -0.182160
    131          1           0       13.361585    0.746544    1.470766
    132          1           0       14.318944    2.221720    2.556351
    133          1           0       14.267665    3.434733    1.243693
    134          1           0       15.915783    0.843234    1.032965
    135          1           0       17.304686    2.951299   -0.151547
    136          1           0       15.629775    3.148073   -0.602184
    137          1           0       16.512536    1.571717   -0.834369
    138          1           0       16.331393    2.527207    3.295179
    139          1           0       17.748862    2.739873    2.072117
    140          1           0       17.271786    1.198634    2.746000
 ---------------------------------------------------------------------

 SCF Done:  E(RPBE1PBE) =  -3005.30144846     A.U. after   15 cycles

 Excitation energies and oscillator strengths:

 Excited State   1:      Singlet-A      1.8431 eV  672.68 nm  f=0.3869  <S**2>=0.000
     245 -> 248       -0.18063
     246 -> 247        0.69169
     246 <- 247       -0.10935
 This state for optimization and/or second-order correction.
 Total Energy, E(TD-HF/TD-DFT) =  -3005.23371420
 Copying the excited state density for this state as the 1-particle RhoCI density.

 Excited State   2:      Singlet-A      2.2471 eV  551.75 nm  f=0.0910  <S**2>=0.000
     245 -> 247        0.64102
     246 -> 248        0.28857

 Excited State   3:      Singlet-A      2.9408 eV  421.60 nm  f=0.0003  <S**2>=0.000
     240 -> 247       -0.10151
     242 -> 247       -0.10486
     243 -> 247        0.64801
     243 -> 249       -0.16386

 Excited State   4:      Singlet-A      3.0384 eV  408.06 nm  f=0.0001  <S**2>=0.000
     241 -> 247        0.11277
     242 -> 247        0.65716
     242 -> 249        0.14813
     242 -> 250       -0.12817

 Excited State   5:      Singlet-A      3.2002 eV  387.43 nm  f=0.0006  <S**2>=0.000
     244 -> 247        0.70663

 The electronic state is 1-A.
 Alpha  occ. eigenvalues --  -46.92309 -19.26723 -19.23846 -19.20935 -19.18929
 Alpha  occ. eigenvalues --  -19.18913 -19.18682 -14.41604 -14.41538 -14.39802
 Alpha  occ. eigenvalues --  -14.39185 -10.37279 -10.35173 -10.32339 -10.31366
 Alpha  occ. eigenvalues --  -10.29288 -10.29252 -10.29151 -10.29123 -10.28545
 Alpha  occ. eigenvalues --  -10.28443 -10.27753 -10.27500 -10.26676 -10.26564
 Alpha  occ. eigenvalues --  -10.26376 -10.26313 -10.26204 -10.26190 -10.26071
 Alpha  occ. eigenvalues --  -10.26005 -10.25857 -10.25520 -10.25295 -10.25238
 Alpha  occ. eigenvalues --  -10.25115 -10.25008 -10.24979 -10.24775 -10.24354
 Alpha  occ. eigenvalues --  -10.23960 -10.23816 -10.23613 -10.23467 -10.23410
 Alpha  occ. eigenvalues --  -10.23374 -10.23336 -10.23288 -10.23237 -10.23116
 Alpha  occ. eigenvalues --  -10.23022 -10.22635 -10.22624 -10.22360 -10.22259
 Alpha  occ. eigenvalues --  -10.22159 -10.22146 -10.22136 -10.22012 -10.21992
 Alpha  occ. eigenvalues --  -10.21963 -10.21737 -10.21732 -10.21716 -10.21659
 Alpha  occ. eigenvalues --  -10.21590  -3.14490  -1.87306  -1.86878  -1.86719
 Alpha  occ. eigenvalues --   -1.11664  -1.09066  -1.04144  -1.03952  -1.02748
 Alpha  occ. eigenvalues --   -1.00252  -0.99387  -0.98315  -0.97449  -0.96494
 Alpha  occ. eigenvalues --   -0.87509  -0.84852  -0.84192  -0.83917  -0.83708
 Alpha  occ. eigenvalues --   -0.83288  -0.82824  -0.81634  -0.81519  -0.81217
 Alpha  occ. eigenvalues --   -0.80248  -0.79164  -0.78395  -0.78079  -0.77456
 Alpha  occ. eigenvalues --   -0.76681  -0.76212  -0.75228  -0.74663  -0.74321
 Alpha  occ. eigenvalues --   -0.74178  -0.72605  -0.72245  -0.70983  -0.70556
 Alpha  occ. eigenvalues --   -0.70122  -0.69742  -0.69306  -0.69044  -0.68347
 Alpha  occ. eigenvalues --   -0.67511  -0.67147  -0.66115  -0.64510  -0.64262
 Alpha  occ. eigenvalues --   -0.63270  -0.62419  -0.61409  -0.61131  -0.60264
 Alpha  occ. eigenvalues --   -0.60057  -0.59446  -0.58683  -0.58428  -0.58155
 Alpha  occ. eigenvalues --   -0.57022  -0.55859  -0.55691  -0.55167  -0.54814
 Alpha  occ. eigenvalues --   -0.54739  -0.54214  -0.53539  -0.53082  -0.52225
 Alpha  occ. eigenvalues --   -0.51884  -0.51091  -0.50602  -0.50496  -0.50157
 Alpha  occ. eigenvalues --   -0.49816  -0.49399  -0.49290  -0.49156  -0.48411
 Alpha  occ. eigenvalues --   -0.48028  -0.47926  -0.47749  -0.47528  -0.47488
 Alpha  occ. eigenvalues --   -0.47180  -0.47109  -0.46685  -0.46385  -0.46321
 Alpha  occ. eigenvalues --   -0.45883  -0.45637  -0.45342  -0.45240  -0.45148
 Alpha  occ. eigenvalues --   -0.44872  -0.44736  -0.44680  -0.44263  -0.43918
 Alpha  occ. eigenvalues --   -0.43814  -0.43724  -0.43612  -0.43507  -0.43190
 Alpha  occ. eigenvalues --   -0.42899  -0.42858  -0.42778  -0.42727  -0.42396
 Alpha  occ. eigenvalues --   -0.42051  -0.41835  -0.41683  -0.41407  -0.41236
 Alpha  occ. eigenvalues --   -0.41144  -0.41108  -0.40780  -0.40694  -0.40212
 Alpha  occ. eigenvalues --   -0.40101  -0.40067  -0.39897  -0.39645  -0.39454
 Alpha  occ. eigenvalues --   -0.39302  -0.39216  -0.39075  -0.38826  -0.38751
 Alpha  occ. eigenvalues --   -0.38460  -0.38439  -0.38029  -0.38011  -0.37911
 Alpha  occ. eigenvalues --   -0.37595  -0.37330  -0.37287  -0.37056  -0.36629
 Alpha  occ. eigenvalues --   -0.36624  -0.36382  -0.36176  -0.36014  -0.35952
 Alpha  occ. eigenvalues --   -0.35716  -0.35538  -0.35096  -0.34782  -0.34633
 Alpha  occ. eigenvalues --   -0.34428  -0.33978  -0.33947  -0.33704  -0.33496
 Alpha  occ. eigenvalues --   -0.33388  -0.32725  -0.32492  -0.32391  -0.32052
 Alpha  occ. eigenvalues --   -0.31906  -0.31554  -0.31514  -0.30759  -0.30697
 Alpha  occ. eigenvalues --   -0.30412  -0.29696  -0.29523  -0.29400  -0.29070
 Alpha  occ. eigenvalues --   -0.28628  -0.28583  -0.27637  -0.26925  -0.26282
 Alpha  occ. eigenvalues --   -0.25661  -0.25353  -0.25210  -0.23993  -0.20989
 Alpha  occ. eigenvalues --   -0.18490
 Alpha virt. eigenvalues --   -0.10973  -0.05243  -0.04098  -0.02181  -0.00806
 Alpha virt. eigenvalues --   -0.00651   0.00738   0.01425   0.01487   0.03527
 Alpha virt. eigenvalues --    0.04130   0.04779   0.05337   0.05383   0.05578

 Mulliken charges:
               1
     1  Mg   0.994410
     2  C    0.025176
     3  C   -0.058287
     4  C   -0.083945
     5  C   -0.068052
     6  N   -0.341950
     7  C    0.041540
     8  C   -0.111395
     9  C   -0.132743
    10  C    0.036383
    11  C    0.005292
    12  C    0.043556
    13  C    0.020816
    14  C    0.193934
    15  O   -0.266922
    16  O   -0.362887
    17  N   -0.531775
    18  C    0.162943
    19  C   -0.162645
    20  C   -0.114178
    21  C    0.187497
    22  C    0.035534
    23  C    0.063278
    24  O   -0.254004
    25  C   -0.024481
    26  N   -0.409500
    27  C    0.092279
    28  C   -0.086238
    29  C   -0.086990
    30  C    0.099713
    31  C    0.027087
    32  C   -0.066544
    33  C   -0.026437
    34  N   -0.462628
    35  C    0.074127
    36  C   -0.162021
    37  C   -0.002349
    38  C    0.161230
    39  C    0.073425
    40  C    0.082456
    41  O   -0.208190
    42  C   -0.167222
    43  C    0.301220
    44  O   -0.271383
    45  O   -0.354419
    46  C    0.141714
    47  C    0.214822
    48  C   -0.125196
    49  C   -0.236061
    50  C    0.007793
    51  C    0.051875
    52  C   -0.070153
    53  C   -0.011474
    54  C   -0.231013
    55  C    0.011544
    56  C   -0.015277
    57  C   -0.054023
    58  C    0.031542
    59  C   -0.231234
    60  C   -0.034042
    61  C    0.020895
    62  C   -0.078783
    63  C   -0.031803
    64  C   -0.261103
    65  C   -0.022845
    66  C    0.012189
    67  H    0.007930
    68  H    0.021896
    69  H    0.003424
    70  H    0.078795
    71  H    0.048701
    72  H    0.048521
    73  H    0.046531
    74  H    0.057959
    75  H    0.039480
    76  H    0.046541
    77  H    0.054717
    78  H    0.064617
    79  H    0.049478
    80  H    0.066660
    81  H    0.062730
    82  H    0.061073
    83  H    0.060417
    84  H    0.064276
    85  H    0.051075
    86  H    0.045953
    87  H    0.039644
    88  H    0.049329
    89  H    0.044578
    90  H    0.029175
    91  H    0.027036
    92  H    0.058253
    93  H    0.050825
    94  H    0.023452
    95  H    0.051138
    96  H    0.026809
    97  H    0.081604
    98  H    0.078429
    99  H    0.045498
   100  H    0.053596
   101  H    0.042783
   102  H    0.087240
   103  H    0.046020
   104  H    0.024540
   105  H    0.031852
   106  H    0.064608
   107  H    0.037229
   108  H    0.047426
   109  H    0.025064
   110  H    0.043566
   111  H    0.032613
   112  H    0.024486
   113  H    0.023202
   114  H    0.027748
   115  H    0.026575
   116  H    0.034823
   117  H    0.037549
   118  H    0.017235
   119  H    0.030431
   120  H    0.027976
   121  H    0.040521
   122  H    0.020754
   123  H    0.015255
   124  H    0.030017
   125  H    0.027295
   126  H    0.043402
   127  H    0.025960
   128  H    0.020861
   129  H    0.040291
   130  H    0.043070
   131  H    0.027443
   132  H    0.022020
   133  H    0.034531
   134  H    0.032093
   135  H    0.022350
   136  H    0.046560
   137  H    0.037222
   138  H    0.037630
   139  H    0.037072
   140  H    0.028471
 Sum of Mulliken charges =  -0.00000

 Dipole moment (field-independent basis, Debye):
    X=              3.1462    Y=              3.5301    Z=             -1.4288  Tot=              4.9398
 Quadrupole moment (field-independent basis, Debye-Ang):
   XX=           -373.6893   YY=           -437.3805   ZZ=           -398.0058
   XY=            -20.8915   XZ=              4.3297   YZ=              6.3106

 Normal termination of Gaussian 16 at Wed May  4 02:34:49 2022.
