 Gaussian 16, Revision A.03,
 Gaussian 16:  ES64L-G16RevA.03 25-Dec-2016

 --------------------------------
 #p wB97XD/Def2SVP td=(nstates=5)
 --------------------------------

 ----------------------------------------------------
 step_1251_chromophore_6 TDDFT with wB97XD functional
 ----------------------------------------------------
 Symbolic Z-matrix:
 Charge =  0 Multiplicity = 1

                         Standard orientation:
 ---------------------------------------------------------------------
 Center     Atomic      Atomic             Coordinates (Angstroms)
 Number     Number       Type             X           Y           Z
 ---------------------------------------------------------------------
      1         12           0       -5.427892    1.078956   -0.332623
      2          6           0       -4.145606   -2.264332   -0.366101
      3          6           0       -2.165128    2.284650   -0.372387
      4          6           0       -6.701063    4.112525    0.228798
      5          6           0       -8.590485   -0.262417    0.225089
      6          7           0       -3.314814    0.018846   -0.101855
      7          6           0       -3.097802   -1.295115   -0.243604
      8          6           0       -1.558809   -1.559111   -0.452187
      9          6           0       -0.985087   -0.056341   -0.393453
     10          6           0       -2.226784    0.840712   -0.296567
     11          6           0        0.012626    0.266387    0.845149
     12          6           0       -1.276438   -2.348249   -1.748319
     13          6           0       -0.507755   -3.638924   -1.676895
     14          6           0        0.356584   -3.994893   -0.471702
     15          8           0        0.138295   -4.888759    0.356257
     16          8           0        1.357105   -3.050440   -0.306019
     17          7           0       -4.604917    2.920652   -0.235414
     18          6           0       -3.235455    3.259685   -0.334683
     19          6           0       -2.982942    4.685520   -0.313252
     20          6           0       -4.324674    5.210092   -0.171355
     21          6           0       -5.328527    4.059447   -0.082717
     22          6           0       -1.654097    5.269774   -0.228036
     23          6           0       -4.711071    6.742391   -0.165574
     24          8           0       -5.879456    7.131670   -0.255838
     25          6           0       -3.675084    7.823010   -0.314805
     26          7           0       -7.229180    1.850592    0.273802
     27          6           0       -7.537790    3.094528    0.510648
     28          6           0       -8.955103    3.427703    0.987638
     29          6           0       -9.654248    2.073302    0.871732
     30          6           0       -8.395435    1.105819    0.449630
     31          6           0       -9.200938    4.119595    2.359125
     32          6           0      -10.894769    2.023510   -0.050324
     33          6           0      -10.667259    1.633435   -1.493179
     34          7           0       -6.294022   -0.844066   -0.198845
     35          6           0       -7.591871   -1.255170   -0.014380
     36          6           0       -7.676497   -2.756249   -0.137307
     37          6           0       -6.386752   -3.090763   -0.375748
     38          6           0       -5.537405   -1.967729   -0.288711
     39          6           0       -8.926393   -3.593405    0.143146
     40          6           0       -5.623156   -4.241492   -0.580287
     41          8           0       -5.884262   -5.440193   -0.532169
     42          6           0       -4.143703   -3.743962   -0.573186
     43          6           0       -3.566816   -4.460201    0.592031
     44          8           0       -3.528374   -4.096977    1.776679
     45          8           0       -3.193938   -5.732156    0.203770
     46          6           0       -2.555960   -6.541874    1.219949
     47          6           0        2.146197   -3.304817    0.882501
     48          6           0        3.630403   -3.457345    0.502243
     49          6           0        4.721120   -3.236678    1.304389
     50          6           0        4.636326   -2.878970    2.769368
     51          6           0        6.092863   -3.513734    0.761315
     52          6           0        6.356673   -2.384454   -0.263807
     53          6           0        7.757569   -1.854057   -0.303838
     54          6           0        8.299150   -1.436496   -1.775711
     55          6           0        9.220201   -2.420705   -2.424448
     56          6           0        8.835617    0.017169   -1.830893
     57          6           0        9.981483    0.280895   -0.847096
     58          6           0       11.145814    1.029077   -1.423340
     59          6           0       11.324223    2.386158   -0.671342
     60          6           0       12.076201    3.481673   -1.569694
     61          6           0       12.071189    2.258621    0.653201
     62          6           0       13.452991    1.553567    0.742490
     63          6           0       14.458801    2.388932    1.488091
     64          6           0       15.923922    1.916921    1.218627
     65          6           0       16.345390    2.435909   -0.190969
     66          6           0       16.892360    2.170219    2.432000
     67          1           0       -1.168689    2.661799   -0.609956
     68          1           0       -7.102440    5.117998    0.371870
     69          1           0       -9.591598   -0.694857    0.160936
     70          1           0       -1.266838   -2.185006    0.391673
     71          1           0       -0.582352    0.293201   -1.343229
     72          1           0        0.941656    0.652494    0.425985
     73          1           0        0.250437   -0.666814    1.355498
     74          1           0       -0.472041    0.930739    1.560257
     75          1           0       -0.852823   -1.642194   -2.461976
     76          1           0       -2.254365   -2.704653   -2.072362
     77          1           0        0.228310   -3.615891   -2.479890
     78          1           0       -1.185722   -4.468708   -1.879165
     79          1           0       -1.489385    6.278569    0.150447
     80          1           0       -1.242527    5.087150   -1.220488
     81          1           0       -1.118733    4.670372    0.509177
     82          1           0       -2.909685    7.503730   -1.023237
     83          1           0       -3.182041    7.919698    0.652047
     84          1           0       -4.167848    8.753274   -0.597226
     85          1           0       -9.373128    4.042177    0.190436
     86          1           0       -9.952997    1.670313    1.838577
     87          1           0       -9.596256    3.416229    3.091250
     88          1           0       -9.858963    4.979940    2.232297
     89          1           0       -8.287150    4.503457    2.812591
     90          1           0      -11.359485    3.008274   -0.105709
     91          1           0      -11.706436    1.484237    0.437546
     92          1           0      -11.102211    0.641986   -1.616330
     93          1           0       -9.699474    1.950243   -1.880520
     94          1           0      -11.251499    2.382928   -2.027252
     95          1           0       -8.945062   -4.392319   -0.597860
     96          1           0       -9.758334   -2.969270   -0.184389
     97          1           0       -9.128909   -4.030169    1.121239
     98          1           0       -3.781490   -4.196254   -1.496123
     99          1           0       -3.267653   -6.974845    1.922043
    100          1           0       -1.792056   -6.055936    1.827350
    101          1           0       -1.974936   -7.343134    0.762620
    102          1           0        1.912949   -4.170911    1.500775
    103          1           0        2.033571   -2.426961    1.519053
    104          1           0        3.780053   -3.753135   -0.536515
    105          1           0        3.782722   -3.434053    3.157452
    106          1           0        4.551343   -1.828564    3.048473
    107          1           0        5.341948   -3.384942    3.427901
    108          1           0        6.227929   -4.440525    0.202987
    109          1           0        6.818323   -3.442915    1.572047
    110          1           0        5.732091   -1.497099   -0.162503
    111          1           0        6.147212   -2.903492   -1.199949
    112          1           0        8.483344   -2.543625    0.127777
    113          1           0        7.675955   -0.963109    0.318648
    114          1           0        7.416518   -1.345040   -2.409530
    115          1           0        9.268276   -3.313853   -1.802104
    116          1           0       10.260984   -2.124729   -2.556834
    117          1           0        8.837205   -2.620648   -3.425216
    118          1           0        8.024614    0.636076   -1.447475
    119          1           0        8.996728    0.235939   -2.886701
    120          1           0       10.307839   -0.701501   -0.503758
    121          1           0        9.580634    0.810732    0.017619
    122          1           0       11.092520    1.198064   -2.498053
    123          1           0       12.082094    0.486347   -1.292060
    124          1           0       10.329184    2.816103   -0.553916
    125          1           0       13.120957    3.506298   -1.258536
    126          1           0       11.566678    4.434315   -1.422818
    127          1           0       12.197072    3.217909   -2.620623
    128          1           0       11.515858    1.482355    1.179446
    129          1           0       12.065900    3.262747    1.078093
    130          1           0       13.808677    1.099163   -0.182160
    131          1           0       13.361585    0.746544    1.470766
    132          1           0       14.318944    2.221720    2.556351
    133          1           0       14.267665    3.434733    1.243693
    134          1           0       15.915783    0.843234    1.032965
    135          1           0       17.304686    2.951299   -0.151547
    136          1           0       15.629775    3.148073   -0.602184
    137          1           0       16.512536    1.571717   -0.834369
    138          1           0       16.331393    2.527207    3.295179
    139          1           0       17.748862    2.739873    2.072117
    140          1           0       17.271786    1.198634    2.746000
 ---------------------------------------------------------------------

 SCF Done:  E(RwB97XD) =  -3007.81108864     A.U. after   17 cycles

 Excitation energies and oscillator strengths:

 Excited State   1:      Singlet-A      1.6214 eV  764.65 nm  f=0.3940  <S**2>=0.000
     245 -> 248        0.19315
     246 -> 247        0.68179
     245 <- 248        0.12070
 This state for optimization and/or second-order correction.
 Total Energy, E(TD-HF/TD-DFT) =  -3007.75150149
 Copying the excited state density for this state as the 1-particle RhoCI density.

 Excited State   2:      Singlet-A      2.1964 eV  564.50 nm  f=0.0862  <S**2>=0.000
     245 -> 247        0.62393
     246 -> 248       -0.32214

 Excited State   3:      Singlet-A      3.4077 eV  363.84 nm  f=0.0995  <S**2>=0.000
     240 -> 247       -0.12763
     240 -> 249        0.15616
     242 -> 247        0.28404
     242 -> 249       -0.16738
     243 -> 247        0.42512
     243 -> 249       -0.20848
     245 -> 247        0.11431
     246 -> 248        0.25773

 Excited State   4:      Singlet-A      3.4656 eV  357.76 nm  f=0.5359  <S**2>=0.000
     240 -> 247        0.17468
     242 -> 249        0.11996
     243 -> 247       -0.25592
     245 -> 247        0.26472
     246 -> 248        0.53888
     245 <- 247       -0.10389

 Excited State   5:      Singlet-A      3.5813 eV  346.20 nm  f=0.0782  <S**2>=0.000
     240 -> 247       -0.19556
     240 -> 249        0.11194
     241 -> 247        0.15349
     242 -> 247        0.46606
     243 -> 247       -0.38948
     246 -> 248       -0.12525

 The electronic state is 1-A.
 Alpha  occ. eigenvalues --  -46.95227 -19.31279 -19.28428 -19.25589 -19.23757
 Alpha  occ. eigenvalues --  -19.23746 -19.23412 -14.46693 -14.46576 -14.44762
 Alpha  occ. eigenvalues --  -14.44101 -10.44068 -10.42031 -10.39195 -10.38246
 Alpha  occ. eigenvalues --  -10.35620 -10.35544 -10.35490 -10.35297 -10.34996
 Alpha  occ. eigenvalues --  -10.34841 -10.33958 -10.33849 -10.33162 -10.32887
 Alpha  occ. eigenvalues --  -10.32723 -10.32599 -10.32590 -10.32559 -10.32487
 Alpha  occ. eigenvalues --  -10.32378 -10.32361 -10.31969 -10.31679 -10.31564
 Alpha  occ. eigenvalues --  -10.31455 -10.31368 -10.31321 -10.31120 -10.30627
 Alpha  occ. eigenvalues --  -10.30343 -10.30223 -10.29960 -10.29874 -10.29863
 Alpha  occ. eigenvalues --  -10.29825 -10.29758 -10.29559 -10.29522 -10.29402
 Alpha  occ. eigenvalues --  -10.29386 -10.28984 -10.28924 -10.28728 -10.28631
 Alpha  occ. eigenvalues --  -10.28527 -10.28520 -10.28478 -10.28436 -10.28363
 Alpha  occ. eigenvalues --  -10.28333 -10.28180 -10.28155 -10.28122 -10.28048
 Alpha  occ. eigenvalues --  -10.28023  -3.21274  -1.94838  -1.94410  -1.94246
 Alpha  occ. eigenvalues --   -1.19042  -1.16495  -1.11644  -1.11472  -1.10095
 Alpha  occ. eigenvalues --   -1.07655  -1.06710  -1.05644  -1.04835  -1.03910
 Alpha  occ. eigenvalues --   -0.95131  -0.92527  -0.91863  -0.91585  -0.91364
 Alpha  occ. eigenvalues --   -0.90869  -0.90497  -0.89201  -0.89142  -0.88890
 Alpha  occ. eigenvalues --   -0.87858  -0.86813  -0.86047  -0.85644  -0.85067
 Alpha  occ. eigenvalues --   -0.84342  -0.83981  -0.82910  -0.82291  -0.81952
 Alpha  occ. eigenvalues --   -0.81837  -0.80318  -0.79897  -0.78552  -0.78232
 Alpha  occ. eigenvalues --   -0.77718  -0.77450  -0.76897  -0.76737  -0.76026
 Alpha  occ. eigenvalues --   -0.75077  -0.74722  -0.73649  -0.72109  -0.71776
 Alpha  occ. eigenvalues --   -0.70781  -0.70075  -0.69098  -0.68701  -0.67863
 Alpha  occ. eigenvalues --   -0.67625  -0.66856  -0.66149  -0.65878  -0.65626
 Alpha  occ. eigenvalues --   -0.64685  -0.63309  -0.63308  -0.62784  -0.62359
 Alpha  occ. eigenvalues --   -0.62217  -0.61548  -0.60983  -0.60545  -0.59661
 Alpha  occ. eigenvalues --   -0.59319  -0.58490  -0.58063  -0.57896  -0.57602
 Alpha  occ. eigenvalues --   -0.57175  -0.56835  -0.56806  -0.56554  -0.55814
 Alpha  occ. eigenvalues --   -0.55469  -0.55263  -0.55180  -0.55042  -0.54825
 Alpha  occ. eigenvalues --   -0.54504  -0.54453  -0.54029  -0.53754  -0.53716
 Alpha  occ. eigenvalues --   -0.53277  -0.53054  -0.52715  -0.52634  -0.52482
 Alpha  occ. eigenvalues --   -0.52260  -0.52211  -0.52005  -0.51611  -0.51234
 Alpha  occ. eigenvalues --   -0.51102  -0.51019  -0.50931  -0.50784  -0.50453
 Alpha  occ. eigenvalues --   -0.50244  -0.50158  -0.50087  -0.50007  -0.49663
 Alpha  occ. eigenvalues --   -0.49269  -0.49125  -0.48937  -0.48643  -0.48450
 Alpha  occ. eigenvalues --   -0.48359  -0.48344  -0.47986  -0.47862  -0.47370
 Alpha  occ. eigenvalues --   -0.47310  -0.47201  -0.47173  -0.46772  -0.46618
 Alpha  occ. eigenvalues --   -0.46449  -0.46335  -0.46277  -0.45956  -0.45825
 Alpha  occ. eigenvalues --   -0.45676  -0.45623  -0.45171  -0.45045  -0.45011
 Alpha  occ. eigenvalues --   -0.44717  -0.44471  -0.44430  -0.44111  -0.43804
 Alpha  occ. eigenvalues --   -0.43766  -0.43585  -0.43272  -0.43169  -0.43059
 Alpha  occ. eigenvalues --   -0.42839  -0.42544  -0.42178  -0.41899  -0.41806
 Alpha  occ. eigenvalues --   -0.41340  -0.41017  -0.40875  -0.40648  -0.40517
 Alpha  occ. eigenvalues --   -0.40490  -0.39622  -0.39507  -0.39450  -0.39038
 Alpha  occ. eigenvalues --   -0.38896  -0.38619  -0.38579  -0.37667  -0.37549
 Alpha  occ. eigenvalues --   -0.37419  -0.36784  -0.36557  -0.36374  -0.35870
 Alpha  occ. eigenvalues --   -0.35514  -0.35293  -0.34802  -0.33483  -0.32958
 Alpha  occ. eigenvalues --   -0.32574  -0.32327  -0.32072  -0.30718  -0.25990
 Alpha  occ. eigenvalues --   -0.22589
 Alpha virt. eigenvalues --   -0.06833   0.00133   0.02190   0.04332   0.05231
 Alpha virt. eigenvalues --    0.06062   0.07431   0.08175   0.08295   0.09983
 Alpha virt. eigenvalues --    0.10586   0.11540   0.12120   0.12233   0.12308

 Mulliken charges:
               1
     1  Mg   0.985512
     2  C    0.032008
     3  C   -0.076268
     4  C   -0.103889
     5  C   -0.083642
     6  N   -0.304049
     7  C    0.002325
     8  C   -0.088597
     9  C   -0.108986
    10  C    0.022912
    11  C    0.022097
    12  C    0.060813
    13  C    0.033907
    14  C    0.184553
    15  O   -0.263552
    16  O   -0.362493
    17  N   -0.501328
    18  C    0.157016
    19  C   -0.149718
    20  C   -0.112263
    21  C    0.180559
    22  C    0.048243
    23  C    0.059117
    24  O   -0.248694
    25  C   -0.012235
    26  N   -0.376437
    27  C    0.080679
    28  C   -0.063014
    29  C   -0.066521
    30  C    0.092732
    31  C    0.037421
    32  C   -0.052600
    33  C   -0.009291
    34  N   -0.426477
    35  C    0.065122
    36  C   -0.166512
    37  C    0.008522
    38  C    0.138541
    39  C    0.085765
    40  C    0.064260
    41  O   -0.198071
    42  C   -0.126852
    43  C    0.276739
    44  O   -0.264953
    45  O   -0.352526
    46  C    0.154595
    47  C    0.230449
    48  C   -0.139026
    49  C   -0.215264
    50  C    0.019898
    51  C    0.063999
    52  C   -0.049454
    53  C    0.001147
    54  C   -0.198037
    55  C    0.018385
    56  C    0.000567
    57  C   -0.035990
    58  C    0.043487
    59  C   -0.198518
    60  C   -0.016713
    61  C    0.038351
    62  C   -0.065357
    63  C   -0.010678
    64  C   -0.234334
    65  C   -0.010625
    66  C    0.026386
    67  H    0.002645
    68  H    0.016623
    69  H   -0.004964
    70  H    0.063438
    71  H    0.037746
    72  H    0.043252
    73  H    0.036039
    74  H    0.051678
    75  H    0.033866
    76  H    0.032147
    77  H    0.049389
    78  H    0.059151
    79  H    0.046116
    80  H    0.062137
    81  H    0.057492
    82  H    0.054309
    83  H    0.055313
    84  H    0.063694
    85  H    0.039665
    86  H    0.034924
    87  H    0.034085
    88  H    0.044432
    89  H    0.038626
    90  H    0.019834
    91  H    0.021162
    92  H    0.053441
    93  H    0.041938
    94  H    0.017601
    95  H    0.046269
    96  H    0.019929
    97  H    0.078337
    98  H    0.071162
    99  H    0.042171
   100  H    0.049244
   101  H    0.040029
   102  H    0.082535
   103  H    0.038846
   104  H    0.021048
   105  H    0.025114
   106  H    0.060893
   107  H    0.032825
   108  H    0.042079
   109  H    0.016384
   110  H    0.034100
   111  H    0.021355
   112  H    0.014883
   113  H    0.013464
   114  H    0.015640
   115  H    0.020294
   116  H    0.028268
   117  H    0.033022
   118  H    0.007453
   119  H    0.022760
   120  H    0.016852
   121  H    0.029772
   122  H    0.011834
   123  H    0.004766
   124  H    0.017925
   125  H    0.012913
   126  H    0.038583
   127  H    0.020567
   128  H    0.009896
   129  H    0.032208
   130  H    0.032055
   131  H    0.018702
   132  H    0.012328
   133  H    0.023042
   134  H    0.020024
   135  H    0.016167
   136  H    0.037998
   137  H    0.032002
   138  H    0.031762
   139  H    0.030988
   140  H    0.022582
 Sum of Mulliken charges =  -0.00000

 Dipole moment (field-independent basis, Debye):
    X=              3.3833    Y=              3.6860    Z=             -1.5037  Tot=              5.2244
 Quadrupole moment (field-independent basis, Debye-Ang):
   XX=           -375.9275   YY=           -435.2662   ZZ=           -397.6039
   XY=            -20.6013   XZ=              4.7407   YZ=              6.3276

 Normal termination of Gaussian 16 at Wed May  4 03:05:14 2022.
