 Gaussian 16, Revision A.03,
 Gaussian 16:  ES64L-G16RevA.03 25-Dec-2016

 --------------------
 #p ZINDO=(nstates=5)
 --------------------

 -----------------------------
 step_1251_chromophore_6 ZINDO
 -----------------------------
 Symbolic Z-matrix:
 Charge =  0 Multiplicity = 1

                         Standard orientation:
 ---------------------------------------------------------------------
 Center     Atomic      Atomic             Coordinates (Angstroms)
 Number     Number       Type             X           Y           Z
 ---------------------------------------------------------------------
      1         12           0       -5.427892    1.078956   -0.332623
      2          6           0       -4.145606   -2.264332   -0.366101
      3          6           0       -2.165128    2.284650   -0.372387
      4          6           0       -6.701063    4.112525    0.228798
      5          6           0       -8.590485   -0.262417    0.225089
      6          7           0       -3.314814    0.018846   -0.101855
      7          6           0       -3.097802   -1.295115   -0.243604
      8          6           0       -1.558809   -1.559111   -0.452187
      9          6           0       -0.985087   -0.056341   -0.393453
     10          6           0       -2.226784    0.840712   -0.296567
     11          6           0        0.012626    0.266387    0.845149
     12          6           0       -1.276438   -2.348249   -1.748319
     13          6           0       -0.507755   -3.638924   -1.676895
     14          6           0        0.356584   -3.994893   -0.471702
     15          8           0        0.138295   -4.888759    0.356257
     16          8           0        1.357105   -3.050440   -0.306019
     17          7           0       -4.604917    2.920652   -0.235414
     18          6           0       -3.235455    3.259685   -0.334683
     19          6           0       -2.982942    4.685520   -0.313252
     20          6           0       -4.324674    5.210092   -0.171355
     21          6           0       -5.328527    4.059447   -0.082717
     22          6           0       -1.654097    5.269774   -0.228036
     23          6           0       -4.711071    6.742391   -0.165574
     24          8           0       -5.879456    7.131670   -0.255838
     25          6           0       -3.675084    7.823010   -0.314805
     26          7           0       -7.229180    1.850592    0.273802
     27          6           0       -7.537790    3.094528    0.510648
     28          6           0       -8.955103    3.427703    0.987638
     29          6           0       -9.654248    2.073302    0.871732
     30          6           0       -8.395435    1.105819    0.449630
     31          6           0       -9.200938    4.119595    2.359125
     32          6           0      -10.894769    2.023510   -0.050324
     33          6           0      -10.667259    1.633435   -1.493179
     34          7           0       -6.294022   -0.844066   -0.198845
     35          6           0       -7.591871   -1.255170   -0.014380
     36          6           0       -7.676497   -2.756249   -0.137307
     37          6           0       -6.386752   -3.090763   -0.375748
     38          6           0       -5.537405   -1.967729   -0.288711
     39          6           0       -8.926393   -3.593405    0.143146
     40          6           0       -5.623156   -4.241492   -0.580287
     41          8           0       -5.884262   -5.440193   -0.532169
     42          6           0       -4.143703   -3.743962   -0.573186
     43          6           0       -3.566816   -4.460201    0.592031
     44          8           0       -3.528374   -4.096977    1.776679
     45          8           0       -3.193938   -5.732156    0.203770
     46          6           0       -2.555960   -6.541874    1.219949
     47          6           0        2.146197   -3.304817    0.882501
     48          6           0        3.630403   -3.457345    0.502243
     49          6           0        4.721120   -3.236678    1.304389
     50          6           0        4.636326   -2.878970    2.769368
     51          6           0        6.092863   -3.513734    0.761315
     52          6           0        6.356673   -2.384454   -0.263807
     53          6           0        7.757569   -1.854057   -0.303838
     54          6           0        8.299150   -1.436496   -1.775711
     55          6           0        9.220201   -2.420705   -2.424448
     56          6           0        8.835617    0.017169   -1.830893
     57          6           0        9.981483    0.280895   -0.847096
     58          6           0       11.145814    1.029077   -1.423340
     59          6           0       11.324223    2.386158   -0.671342
     60          6           0       12.076201    3.481673   -1.569694
     61          6           0       12.071189    2.258621    0.653201
     62          6           0       13.452991    1.553567    0.742490
     63          6           0       14.458801    2.388932    1.488091
     64          6           0       15.923922    1.916921    1.218627
     65          6           0       16.345390    2.435909   -0.190969
     66          6           0       16.892360    2.170219    2.432000
     67          1           0       -1.168689    2.661799   -0.609956
     68          1           0       -7.102440    5.117998    0.371870
     69          1           0       -9.591598   -0.694857    0.160936
     70          1           0       -1.266838   -2.185006    0.391673
     71          1           0       -0.582352    0.293201   -1.343229
     72          1           0        0.941656    0.652494    0.425985
     73          1           0        0.250437   -0.666814    1.355498
     74          1           0       -0.472041    0.930739    1.560257
     75          1           0       -0.852823   -1.642194   -2.461976
     76          1           0       -2.254365   -2.704653   -2.072362
     77          1           0        0.228310   -3.615891   -2.479890
     78          1           0       -1.185722   -4.468708   -1.879165
     79          1           0       -1.489385    6.278569    0.150447
     80          1           0       -1.242527    5.087150   -1.220488
     81          1           0       -1.118733    4.670372    0.509177
     82          1           0       -2.909685    7.503730   -1.023237
     83          1           0       -3.182041    7.919698    0.652047
     84          1           0       -4.167848    8.753274   -0.597226
     85          1           0       -9.373128    4.042177    0.190436
     86          1           0       -9.952997    1.670313    1.838577
     87          1           0       -9.596256    3.416229    3.091250
     88          1           0       -9.858963    4.979940    2.232297
     89          1           0       -8.287150    4.503457    2.812591
     90          1           0      -11.359485    3.008274   -0.105709
     91          1           0      -11.706436    1.484237    0.437546
     92          1           0      -11.102211    0.641986   -1.616330
     93          1           0       -9.699474    1.950243   -1.880520
     94          1           0      -11.251499    2.382928   -2.027252
     95          1           0       -8.945062   -4.392319   -0.597860
     96          1           0       -9.758334   -2.969270   -0.184389
     97          1           0       -9.128909   -4.030169    1.121239
     98          1           0       -3.781490   -4.196254   -1.496123
     99          1           0       -3.267653   -6.974845    1.922043
    100          1           0       -1.792056   -6.055936    1.827350
    101          1           0       -1.974936   -7.343134    0.762620
    102          1           0        1.912949   -4.170911    1.500775
    103          1           0        2.033571   -2.426961    1.519053
    104          1           0        3.780053   -3.753135   -0.536515
    105          1           0        3.782722   -3.434053    3.157452
    106          1           0        4.551343   -1.828564    3.048473
    107          1           0        5.341948   -3.384942    3.427901
    108          1           0        6.227929   -4.440525    0.202987
    109          1           0        6.818323   -3.442915    1.572047
    110          1           0        5.732091   -1.497099   -0.162503
    111          1           0        6.147212   -2.903492   -1.199949
    112          1           0        8.483344   -2.543625    0.127777
    113          1           0        7.675955   -0.963109    0.318648
    114          1           0        7.416518   -1.345040   -2.409530
    115          1           0        9.268276   -3.313853   -1.802104
    116          1           0       10.260984   -2.124729   -2.556834
    117          1           0        8.837205   -2.620648   -3.425216
    118          1           0        8.024614    0.636076   -1.447475
    119          1           0        8.996728    0.235939   -2.886701
    120          1           0       10.307839   -0.701501   -0.503758
    121          1           0        9.580634    0.810732    0.017619
    122          1           0       11.092520    1.198064   -2.498053
    123          1           0       12.082094    0.486347   -1.292060
    124          1           0       10.329184    2.816103   -0.553916
    125          1           0       13.120957    3.506298   -1.258536
    126          1           0       11.566678    4.434315   -1.422818
    127          1           0       12.197072    3.217909   -2.620623
    128          1           0       11.515858    1.482355    1.179446
    129          1           0       12.065900    3.262747    1.078093
    130          1           0       13.808677    1.099163   -0.182160
    131          1           0       13.361585    0.746544    1.470766
    132          1           0       14.318944    2.221720    2.556351
    133          1           0       14.267665    3.434733    1.243693
    134          1           0       15.915783    0.843234    1.032965
    135          1           0       17.304686    2.951299   -0.151547
    136          1           0       15.629775    3.148073   -0.602184
    137          1           0       16.512536    1.571717   -0.834369
    138          1           0       16.331393    2.527207    3.295179
    139          1           0       17.748862    2.739873    2.072117
    140          1           0       17.271786    1.198634    2.746000
 ---------------------------------------------------------------------

 SCF Done:  E(RZINDO/S) =  -474.175816033     A.U. after   21 cycles

 Excitation energies and oscillator strengths:

 Excited State   1:      Singlet-A      1.2247 eV 1012.39 nm  f=0.6043  <S**2>=0.000
     175 ->178         0.19966
     176 ->177         0.65977
 This state for optimization and/or second-order correction.
 Total Energy, E(CIS/TDA) =  -474.130810223
 Copying the excited state density for this state as the 1-particle RhoCI density.

 Excited State   2:      Singlet-A      1.8973 eV  653.49 nm  f=0.0187  <S**2>=0.000
     175 ->177         0.52106
     176 ->178        -0.45055

 Excited State   3:      Singlet-A      2.7739 eV  446.97 nm  f=0.0320  <S**2>=0.000
     168 ->177         0.23611
     168 ->178        -0.15019
     168 ->179        -0.30454
     168 ->180         0.16009
     168 ->187        -0.11094
     170 ->177         0.17382
     170 ->178        -0.10187
     170 ->179        -0.21055
     170 ->180         0.12155
     171 ->177        -0.14130
     171 ->179         0.13384
     176 ->178         0.13248
     176 ->179         0.16189

 Excited State   4:      Singlet-A      2.8472 eV  435.46 nm  f=0.3596  <S**2>=0.000
     168 ->177        -0.11441
     168 ->179         0.14318
     175 ->177         0.25436
     176 ->178         0.37848
     176 ->179         0.44306

 Excited State   5:      Singlet-A      2.9520 eV  420.00 nm  f=0.0196  <S**2>=0.000
     169 ->177         0.27410
     169 ->179         0.28916
     169 ->180         0.42331
     169 ->184        -0.13414
     169 ->186         0.22297
     169 ->189         0.14290

 The electronic state is 1-A.
 Alpha  occ. eigenvalues --   -1.84219  -1.81433  -1.77245  -1.73650  -1.72278
 Alpha  occ. eigenvalues --   -1.68916  -1.66667  -1.62003  -1.58774  -1.57535
 Alpha  occ. eigenvalues --   -1.55933  -1.51288  -1.49274  -1.48650  -1.47261
 Alpha  occ. eigenvalues --   -1.44422  -1.41976  -1.40684  -1.38801  -1.37862
 Alpha  occ. eigenvalues --   -1.35642  -1.32943  -1.32131  -1.30527  -1.29041
 Alpha  occ. eigenvalues --   -1.27535  -1.25000  -1.21944  -1.19589  -1.17279
 Alpha  occ. eigenvalues --   -1.16825  -1.16619  -1.16478  -1.15075  -1.14087
 Alpha  occ. eigenvalues --   -1.12103  -1.10885  -1.10134  -1.05906  -1.03710
 Alpha  occ. eigenvalues --   -1.01677  -1.01377  -0.98892  -0.98469  -0.97304
 Alpha  occ. eigenvalues --   -0.97058  -0.95306  -0.94026  -0.92953  -0.92003
 Alpha  occ. eigenvalues --   -0.89579  -0.89528  -0.87649  -0.85768  -0.85341
 Alpha  occ. eigenvalues --   -0.84313  -0.83567  -0.83238  -0.82045  -0.81083
 Alpha  occ. eigenvalues --   -0.80533  -0.78361  -0.77600  -0.76927  -0.76474
 Alpha  occ. eigenvalues --   -0.75936  -0.75399  -0.75021  -0.74753  -0.74169
 Alpha  occ. eigenvalues --   -0.73416  -0.72541  -0.71973  -0.71601  -0.71013
 Alpha  occ. eigenvalues --   -0.70218  -0.69382  -0.69141  -0.68579  -0.67899
 Alpha  occ. eigenvalues --   -0.67606  -0.67288  -0.66575  -0.66243  -0.65616
 Alpha  occ. eigenvalues --   -0.65192  -0.64207  -0.64031  -0.63732  -0.63572
 Alpha  occ. eigenvalues --   -0.62780  -0.62553  -0.62409  -0.62169  -0.61861
 Alpha  occ. eigenvalues --   -0.61497  -0.60804  -0.60700  -0.60511  -0.60358
 Alpha  occ. eigenvalues --   -0.59952  -0.59155  -0.58488  -0.58308  -0.57975
 Alpha  occ. eigenvalues --   -0.57342  -0.57162  -0.56856  -0.56737  -0.55984
 Alpha  occ. eigenvalues --   -0.55764  -0.55725  -0.55487  -0.55098  -0.54968
 Alpha  occ. eigenvalues --   -0.54307  -0.53717  -0.53445  -0.53313  -0.53241
 Alpha  occ. eigenvalues --   -0.52739  -0.52312  -0.52098  -0.52043  -0.51705
 Alpha  occ. eigenvalues --   -0.51080  -0.50910  -0.50443  -0.50263  -0.50127
 Alpha  occ. eigenvalues --   -0.50060  -0.49436  -0.49184  -0.49087  -0.49046
 Alpha  occ. eigenvalues --   -0.48690  -0.48487  -0.48006  -0.47770  -0.47691
 Alpha  occ. eigenvalues --   -0.47206  -0.46972  -0.46734  -0.46219  -0.46085
 Alpha  occ. eigenvalues --   -0.45804  -0.45639  -0.45622  -0.45288  -0.45149
 Alpha  occ. eigenvalues --   -0.44747  -0.44471  -0.44243  -0.43970  -0.43569
 Alpha  occ. eigenvalues --   -0.43243  -0.43132  -0.42378  -0.42180  -0.42108
 Alpha  occ. eigenvalues --   -0.41618  -0.41283  -0.40555  -0.38870  -0.38237
 Alpha  occ. eigenvalues --   -0.37593  -0.37160  -0.34957  -0.34946  -0.34312
 Alpha  occ. eigenvalues --   -0.33219  -0.32759  -0.32214  -0.30975  -0.26482
 Alpha  occ. eigenvalues --   -0.21331
 Alpha virt. eigenvalues --   -0.08202  -0.02149  -0.00546   0.01047   0.01163
 Alpha virt. eigenvalues --    0.01931   0.02749   0.03316   0.04461   0.05029
 Alpha virt. eigenvalues --    0.06271   0.07128   0.07199   0.07650   0.08156

 Mulliken charges:
               1
     1  Mg   0.426994
     2  C   -0.036932
     3  C   -0.084112
     4  C   -0.076675
     5  C   -0.072250
     6  N   -0.272577
     7  C    0.121191
     8  C    0.001945
     9  C   -0.004706
    10  C    0.115377
    11  C   -0.051832
    12  C   -0.017812
    13  C    0.010814
    14  C    0.466157
    15  O   -0.512869
    16  O   -0.267443
    17  N   -0.318677
    18  C    0.086543
    19  C    0.022007
    20  C   -0.071124
    21  C    0.149464
    22  C   -0.031718
    23  C    0.312643
    24  O   -0.526590
    25  C   -0.025693
    26  N   -0.259194
    27  C    0.171454
    28  C    0.005858
    29  C   -0.004466
    30  C    0.101994
    31  C   -0.046524
    32  C   -0.028679
    33  C   -0.061564
    34  N   -0.313442
    35  C    0.090151
    36  C    0.029285
    37  C   -0.021095
    38  C    0.098857
    39  C   -0.037317
    40  C    0.329868
    41  O   -0.520248
    42  C    0.061019
    43  C    0.490693
    44  O   -0.534509
    45  O   -0.261095
    46  C    0.077620
    47  C    0.102852
    48  C   -0.102384
    49  C    0.000246
    50  C   -0.049412
    51  C   -0.019163
    52  C   -0.028887
    53  C   -0.040283
    54  C   -0.017506
    55  C   -0.049647
    56  C   -0.035153
    57  C   -0.027358
    58  C   -0.031897
    59  C   -0.017894
    60  C   -0.073914
    61  C   -0.036101
    62  C   -0.036103
    63  C   -0.029807
    64  C   -0.024468
    65  C   -0.059613
    66  C   -0.061325
    67  H    0.027738
    68  H    0.036651
    69  H    0.027621
    70  H    0.048480
    71  H    0.032440
    72  H    0.022668
    73  H    0.025030
    74  H    0.034184
    75  H    0.028360
    76  H    0.024479
    77  H    0.032564
    78  H    0.038250
    79  H    0.032320
    80  H    0.037881
    81  H    0.025817
    82  H    0.031678
    83  H    0.034918
    84  H    0.044640
    85  H    0.032810
    86  H    0.025415
    87  H    0.023694
    88  H    0.025179
    89  H    0.021715
    90  H    0.010207
    91  H    0.017164
    92  H    0.036772
    93  H    0.037810
    94  H    0.005754
    95  H    0.027630
    96  H    0.016048
    97  H    0.051826
    98  H    0.060830
    99  H    0.041627
   100  H    0.045096
   101  H    0.025615
   102  H    0.069095
   103  H    0.033047
   104  H    0.032127
   105  H    0.015806
   106  H    0.038503
   107  H    0.023574
   108  H    0.032913
   109  H    0.018198
   110  H    0.025885
   111  H    0.015400
   112  H    0.020872
   113  H    0.014918
   114  H    0.007339
   115  H    0.016287
   116  H    0.018505
   117  H    0.017449
   118  H    0.007127
   119  H    0.024316
   120  H    0.015237
   121  H    0.021727
   122  H    0.019444
   123  H    0.015265
   124  H    0.018032
   125  H    0.015197
   126  H    0.022724
   127  H    0.018475
   128  H    0.013267
   129  H    0.027140
   130  H    0.031399
   131  H    0.010913
   132  H    0.012170
   133  H    0.022675
   134  H    0.016316
   135  H    0.012189
   136  H    0.023807
   137  H    0.018641
   138  H    0.028844
   139  H    0.028694
   140  H    0.012592
 Sum of Mulliken charges =  -0.00000

 Dipole moment (field-independent basis, Debye):
    X=              5.6684    Y=              4.4013    Z=             -3.0614  Tot=              7.8022
 N-N= 4.286827642143D+03 E-N= 0.000000000000D+00  KE=-9.248214660205D+03
 Leave Link  601 at Wed May  4 03:17:28 2022, MaxMem=  6710886400 cpu:               0.8 elap:               0.0
 (Enter /sw/apps/gaussian-16.0/g16/l9999.exe)
 1\1\GINC-BP1-COMPUTE036\SP\RZINDO CIS\STO-3G\C55H74Mg1N4O6\OF15641\04-
 May-2022\0\\#p ZINDO=(nstates=5)\\step_1251_chromophore_6 ZINDO\\0,1\M
 g,0,16.822,-3.129,27.551\C,0,15.978,-1.142,30.408\C,0,18.656,-5.243,29
 .617\C,0,17.972,-4.593,24.781\C,0,15.395,-0.66,25.556\N,0,17.47,-2.99,
 29.832\C,0,16.913,-2.176,30.738\C,0,17.286,-2.663,32.189\C,0,18.186,-3
 .954,31.851\C,0,18.105,-4.108,30.326\C,0,19.742,-3.863,32.303\C,0,16.0
 34,-2.911,33.057\C,0,15.892,-2.197,34.373\C,0,17.089,-1.573,35.083\O,0

 Normal termination of Gaussian 16 at Wed May  4 03:17:28 2022.
