 Gaussian 16, Revision A.03,
 Gaussian 16:  ES64L-G16RevA.03 25-Dec-2016

 ------------------------------
 #p blyp/Def2SVP td=(nstates=5)
 ------------------------------

 ---------------------------------------------------
 step_1401_chromophore_12 TDDFT with blyp functional
 ---------------------------------------------------
 Symbolic Z-matrix:
 Charge =  0 Multiplicity = 1

                         Standard orientation:
 ---------------------------------------------------------------------
 Center     Atomic      Atomic             Coordinates (Angstroms)
 Number     Number       Type             X           Y           Z
 ---------------------------------------------------------------------
      1         12           0       -4.218405    0.240191   -0.270668
      2          6           0       -2.668417   -2.766722    0.704646
      3          6           0       -0.967380    1.618989   -0.580454
      4          6           0       -5.535911    3.185372   -1.064470
      5          6           0       -7.336671   -1.149448    0.419302
      6          7           0       -2.056404   -0.451645    0.014372
      7          6           0       -1.711087   -1.798290    0.368841
      8          6           0       -0.146603   -1.914889    0.207405
      9          6           0        0.374053   -0.454715    0.133572
     10          6           0       -0.924017    0.291207   -0.154529
     11          6           0        1.031754    0.106099    1.457656
     12          6           0        0.222985   -2.853100   -1.075395
     13          6           0        1.390369   -3.795298   -0.877733
     14          6           0        2.256224   -4.056544   -2.118290
     15          8           0        1.935003   -3.795728   -3.263580
     16          8           0        3.479567   -4.617378   -1.722168
     17          7           0       -3.380717    2.218011   -0.689961
     18          6           0       -2.006792    2.518908   -0.812709
     19          6           0       -1.851760    3.950656   -1.264469
     20          6           0       -3.253147    4.375701   -1.465709
     21          6           0       -4.130861    3.301990   -0.970544
     22          6           0       -0.532475    4.539459   -1.505184
     23          6           0       -3.681309    5.654926   -2.038208
     24          8           0       -4.878785    5.974221   -2.122837
     25          6           0       -2.636733    6.602153   -2.585802
     26          7           0       -6.041624    0.975742   -0.137090
     27          6           0       -6.403977    2.201153   -0.631338
     28          6           0       -7.933855    2.283867   -0.992716
     29          6           0       -8.501862    0.895512   -0.543349
     30          6           0       -7.220069    0.166751   -0.107459
     31          6           0       -8.667920    3.539318   -0.314472
     32          6           0       -9.154294    0.070253   -1.657945
     33          6           0      -10.095579    0.920789   -2.644441
     34          7           0       -4.934915   -1.521542    0.549177
     35          6           0       -6.214413   -1.988280    0.755457
     36          6           0       -6.186963   -3.292929    1.320384
     37          6           0       -4.847477   -3.614752    1.319946
     38          6           0       -4.077149   -2.551340    0.779195
     39          6           0       -7.382748   -4.072709    1.820974
     40          6           0       -3.971725   -4.741584    1.615069
     41          8           0       -4.182983   -5.860673    2.000445
     42          6           0       -2.464522   -4.232622    1.184921
     43          6           0       -1.527181   -4.385146    2.341788
     44          8           0       -1.643113   -3.850610    3.445855
     45          8           0       -0.550291   -5.278724    1.962560
     46          6           0        0.591820   -5.434237    2.864904
     47          6           0        4.624272   -4.329036   -2.639228
     48          6           0        5.816161   -4.051462   -1.770750
     49          6           0        6.960222   -3.386891   -2.095824
     50          6           0        7.328411   -2.853844   -3.513189
     51          6           0        8.080355   -3.269176   -1.072081
     52          6           0        8.468723   -1.825272   -0.636079
     53          6           0        9.743135   -1.287050   -1.342203
     54          6           0        9.863475    0.281243   -1.400090
     55          6           0       11.118821    0.555088   -2.384451
     56          6           0       10.150125    0.941629   -0.000582
     57          6           0        9.406470    2.309485    0.100737
     58          6           0        8.510046    2.409138    1.445074
     59          6           0        7.379136    3.464455    1.265711
     60          6           0        8.011754    4.866870    1.425276
     61          6           0        6.269083    3.255100    2.300598
     62          6           0        5.076170    4.191447    1.997637
     63          6           0        3.749483    3.634303    2.537144
     64          6           0        2.938336    4.700499    3.386417
     65          6           0        3.362260    4.511978    4.845717
     66          6           0        1.396222    4.434681    3.283178
     67          1           0        0.012842    2.100542   -0.591817
     68          1           0       -6.011610    4.083752   -1.463823
     69          1           0       -8.393830   -1.415100    0.348194
     70          1           0        0.314797   -2.375428    1.081289
     71          1           0        1.095765   -0.352749   -0.676941
     72          1           0        0.463293    0.947456    1.851980
     73          1           0        1.980054    0.621575    1.305736
     74          1           0        1.325935   -0.668790    2.166283
     75          1           0        0.369363   -2.138983   -1.885852
     76          1           0       -0.682980   -3.382168   -1.367079
     77          1           0        1.075317   -4.800410   -0.598437
     78          1           0        2.061745   -3.509775   -0.069094
     79          1           0       -0.104388    4.386336   -2.495870
     80          1           0        0.188743    4.079780   -0.829601
     81          1           0       -0.433625    5.614085   -1.352742
     82          1           0       -3.095427    7.340402   -3.243058
     83          1           0       -1.937170    6.015728   -3.181900
     84          1           0       -2.219948    7.204667   -1.778021
     85          1           0       -7.986352    2.352271   -2.079207
     86          1           0       -9.202381    1.130041    0.257172
     87          1           0       -9.581548    3.736474   -0.874847
     88          1           0       -8.063791    4.445107   -0.369795
     89          1           0       -8.833497    3.317423    0.739707
     90          1           0       -9.797809   -0.694419   -1.222680
     91          1           0       -8.539275   -0.569631   -2.290120
     92          1           0      -10.137856    1.991605   -2.448645
     93          1           0      -11.103052    0.537992   -2.481161
     94          1           0       -9.848111    0.718204   -3.686119
     95          1           0       -7.177411   -5.130317    1.990411
     96          1           0       -8.222067   -3.892747    1.150243
     97          1           0       -7.655018   -3.599570    2.764399
     98          1           0       -2.211119   -4.983489    0.435949
     99          1           0        0.882460   -4.536703    3.410804
    100          1           0        1.431573   -5.736132    2.238208
    101          1           0        0.223813   -6.204853    3.542775
    102          1           0        4.438576   -3.437750   -3.238535
    103          1           0        4.814693   -5.073540   -3.412771
    104          1           0        5.693562   -4.525414   -0.796536
    105          1           0        6.779186   -3.260225   -4.363520
    106          1           0        8.322927   -3.187201   -3.807405
    107          1           0        7.285937   -1.766526   -3.572841
    108          1           0        8.970678   -3.761162   -1.463284
    109          1           0        7.831343   -3.814627   -0.161935
    110          1           0        8.693917   -1.805823    0.430318
    111          1           0        7.694403   -1.067210   -0.757911
    112          1           0        9.881045   -1.745591   -2.320417
    113          1           0       10.588211   -1.566361   -0.713264
    114          1           0        8.875447    0.562496   -1.762873
    115          1           0       11.717608   -0.355955   -2.400259
    116          1           0       11.677800    1.408215   -2.001028
    117          1           0       10.923050    0.840243   -3.417871
    118          1           0       11.209689    1.178056    0.095946
    119          1           0        9.909890    0.338910    0.875899
    120          1           0        8.819504    2.556436   -0.784206
    121          1           0       10.199244    3.055617    0.155939
    122          1           0        9.250392    2.843382    2.115687
    123          1           0        8.219900    1.423849    1.810345
    124          1           0        7.113891    3.304337    0.220413
    125          1           0        9.097710    4.891446    1.332704
    126          1           0        7.696662    5.456689    2.285532
    127          1           0        7.588428    5.345012    0.541828
    128          1           0        6.756599    3.412498    3.262653
    129          1           0        5.988744    2.202593    2.278366
    130          1           0        4.998278    4.312937    0.917382
    131          1           0        5.210531    5.213816    2.350024
    132          1           0        3.942511    2.788226    3.197413
    133          1           0        3.104590    3.299458    1.724645
    134          1           0        3.035270    5.736105    3.061119
    135          1           0        3.132502    5.440433    5.368563
    136          1           0        4.386504    4.178872    5.009732
    137          1           0        2.689919    3.688470    5.086045
    138          1           0        0.864258    4.662922    4.206241
    139          1           0        1.170188    3.485749    2.795839
    140          1           0        0.958449    5.071207    2.514859
 ---------------------------------------------------------------------

 SCF Done:  E(RB-LYP) =  -3007.40879179     A.U. after   20 cycles

 Excitation energies and oscillator strengths:

 Excited State   1:      Singlet-A      1.7120 eV  724.19 nm  f=0.0613  <S**2>=0.000
     244 -> 247        0.59440
     245 -> 247        0.17736
     246 -> 247        0.33331
 This state for optimization and/or second-order correction.
 Total Energy, E(TD-HF/TD-DFT) =  -3007.34587570
 Copying the excited state density for this state as the 1-particle RhoCI density.

 Excited State   2:      Singlet-A      1.7738 eV  698.96 nm  f=0.2481  <S**2>=0.000
     244 -> 247       -0.33505
     245 -> 248       -0.16219
     246 -> 247        0.60956
     246 <- 247       -0.14152

 Excited State   3:      Singlet-A      1.8841 eV  658.05 nm  f=0.0263  <S**2>=0.000
     243 -> 247        0.61424
     244 -> 247       -0.10160
     245 -> 247        0.31585

 Excited State   4:      Singlet-A      2.0036 eV  618.81 nm  f=0.0663  <S**2>=0.000
     243 -> 247       -0.34326
     244 -> 247       -0.14291
     245 -> 247        0.54665
     246 -> 248        0.21939

 Excited State   5:      Singlet-A      2.4196 eV  512.41 nm  f=0.0002  <S**2>=0.000
     240 -> 247        0.63461
     241 -> 247       -0.29694

 The electronic state is 1-A.
 Alpha  occ. eigenvalues --  -46.26894 -18.82124 -18.82102 -18.77821 -18.76447
 Alpha  occ. eigenvalues --  -18.76187 -18.74883 -14.03718 -14.03156 -14.01065
 Alpha  occ. eigenvalues --  -14.00924 -10.04716 -10.03645  -9.99561  -9.99093
 Alpha  occ. eigenvalues --   -9.98299  -9.97886  -9.97289  -9.96788  -9.96694
 Alpha  occ. eigenvalues --   -9.96367  -9.96118  -9.95844  -9.95543  -9.95128
 Alpha  occ. eigenvalues --   -9.94876  -9.94795  -9.94777  -9.94748  -9.94079
 Alpha  occ. eigenvalues --   -9.93969  -9.93953  -9.93923  -9.93656  -9.93555
 Alpha  occ. eigenvalues --   -9.93464  -9.93155  -9.93116  -9.93110  -9.93054
 Alpha  occ. eigenvalues --   -9.92995  -9.92970  -9.92863  -9.92838  -9.92503
 Alpha  occ. eigenvalues --   -9.92441  -9.92421  -9.92360  -9.92294  -9.92153
 Alpha  occ. eigenvalues --   -9.91914  -9.91906  -9.91690  -9.91641  -9.91607
 Alpha  occ. eigenvalues --   -9.91552  -9.91551  -9.91545  -9.91521  -9.91492
 Alpha  occ. eigenvalues --   -9.91301  -9.91257  -9.90967  -9.90913  -9.90886
 Alpha  occ. eigenvalues --   -9.90761  -2.91601  -1.72011  -1.71483  -1.71323
 Alpha  occ. eigenvalues --   -0.97116  -0.97071  -0.92391  -0.90250  -0.90120
 Alpha  occ. eigenvalues --   -0.89299  -0.86146  -0.84852  -0.84466  -0.83664
 Alpha  occ. eigenvalues --   -0.74426  -0.73378  -0.73133  -0.72394  -0.72253
 Alpha  occ. eigenvalues --   -0.71768  -0.71552  -0.71027  -0.70478  -0.70039
 Alpha  occ. eigenvalues --   -0.69752  -0.69231  -0.68090  -0.67124  -0.66755
 Alpha  occ. eigenvalues --   -0.66289  -0.65652  -0.65263  -0.65019  -0.64265
 Alpha  occ. eigenvalues --   -0.63820  -0.62628  -0.62436  -0.61734  -0.60812
 Alpha  occ. eigenvalues --   -0.60500  -0.60115  -0.59686  -0.59661  -0.58906
 Alpha  occ. eigenvalues --   -0.58222  -0.57761  -0.56669  -0.55856  -0.55046
 Alpha  occ. eigenvalues --   -0.53795  -0.53548  -0.52738  -0.52517  -0.51247
 Alpha  occ. eigenvalues --   -0.51097  -0.50791  -0.50242  -0.50111  -0.50040
 Alpha  occ. eigenvalues --   -0.49975  -0.49465  -0.48957  -0.48455  -0.46904
 Alpha  occ. eigenvalues --   -0.46801  -0.46079  -0.45499  -0.45050  -0.44096
 Alpha  occ. eigenvalues --   -0.43570  -0.43497  -0.43085  -0.42632  -0.42309
 Alpha  occ. eigenvalues --   -0.42059  -0.41676  -0.41520  -0.41198  -0.41026
 Alpha  occ. eigenvalues --   -0.40839  -0.40653  -0.40312  -0.40102  -0.40044
 Alpha  occ. eigenvalues --   -0.40020  -0.39798  -0.39701  -0.39275  -0.39245
 Alpha  occ. eigenvalues --   -0.39022  -0.38613  -0.38555  -0.38343  -0.38198
 Alpha  occ. eigenvalues --   -0.38011  -0.37931  -0.37720  -0.37474  -0.37260
 Alpha  occ. eigenvalues --   -0.37123  -0.36897  -0.36751  -0.36516  -0.36414
 Alpha  occ. eigenvalues --   -0.36065  -0.35989  -0.35731  -0.35531  -0.35505
 Alpha  occ. eigenvalues --   -0.35185  -0.35063  -0.34965  -0.34896  -0.34568
 Alpha  occ. eigenvalues --   -0.34353  -0.34306  -0.34117  -0.34050  -0.33880
 Alpha  occ. eigenvalues --   -0.33809  -0.33619  -0.33387  -0.33307  -0.33001
 Alpha  occ. eigenvalues --   -0.32944  -0.32703  -0.32584  -0.32376  -0.32237
 Alpha  occ. eigenvalues --   -0.32154  -0.31935  -0.31808  -0.31727  -0.31396
 Alpha  occ. eigenvalues --   -0.31349  -0.31191  -0.31112  -0.30915  -0.30785
 Alpha  occ. eigenvalues --   -0.30581  -0.30416  -0.30299  -0.30250  -0.30096
 Alpha  occ. eigenvalues --   -0.30026  -0.29988  -0.29524  -0.29490  -0.29372
 Alpha  occ. eigenvalues --   -0.29263  -0.28805  -0.28630  -0.28377  -0.28267
 Alpha  occ. eigenvalues --   -0.27653  -0.27564  -0.27367  -0.27125  -0.26570
 Alpha  occ. eigenvalues --   -0.26388  -0.26304  -0.26199  -0.25797  -0.25574
 Alpha  occ. eigenvalues --   -0.25279  -0.24927  -0.24840  -0.23794  -0.23725
 Alpha  occ. eigenvalues --   -0.23581  -0.22607  -0.22298  -0.21476  -0.20766
 Alpha  occ. eigenvalues --   -0.20753  -0.20265  -0.18796  -0.18140  -0.17418
 Alpha  occ. eigenvalues --   -0.15933
 Alpha virt. eigenvalues --   -0.11871  -0.06798  -0.06281  -0.04636  -0.03539
 Alpha virt. eigenvalues --   -0.02804  -0.02666  -0.02156  -0.01965   0.00446
 Alpha virt. eigenvalues --    0.00571   0.01272   0.01836   0.02313   0.02448

 Mulliken charges:
               1
     1  Mg   0.694646
     2  C    0.051146
     3  C   -0.031969
     4  C   -0.066897
     5  C   -0.047511
     6  N   -0.222171
     7  C   -0.058851
     8  C    0.003043
     9  C    0.025316
    10  C   -0.003387
    11  C    0.099726
    12  C    0.146399
    13  C    0.113910
    14  C    0.076278
    15  O   -0.170362
    16  O   -0.306057
    17  N   -0.261966
    18  C    0.112706
    19  C   -0.089405
    20  C    0.034132
    21  C    0.109067
    22  C    0.144093
    23  C   -0.104714
    24  O   -0.182934
    25  C    0.133539
    26  N   -0.305362
    27  C    0.074418
    28  C   -0.014577
    29  C    0.084524
    30  C   -0.003549
    31  C    0.107002
    32  C    0.046265
    33  C    0.046613
    34  N   -0.277735
    35  C    0.143343
    36  C   -0.172980
    37  C    0.064526
    38  C    0.086529
    39  C    0.191692
    40  C   -0.043635
    41  O   -0.100689
    42  C    0.018177
    43  C    0.113052
    44  O   -0.187660
    45  O   -0.281879
    46  C    0.211450
    47  C    0.316391
    48  C   -0.133284
    49  C   -0.086799
    50  C    0.112436
    51  C    0.153724
    52  C    0.071583
    53  C    0.044162
    54  C   -0.077643
    55  C    0.099429
    56  C    0.116746
    57  C    0.023781
    58  C    0.073386
    59  C   -0.095549
    60  C    0.100699
    61  C    0.109817
    62  C    0.108857
    63  C    0.102203
    64  C   -0.119497
    65  C    0.102123
    66  C    0.089771
    67  H   -0.079144
    68  H   -0.032391
    69  H   -0.060549
    70  H   -0.027383
    71  H   -0.019526
    72  H    0.016784
    73  H   -0.019962
    74  H    0.001423
    75  H   -0.016177
    76  H   -0.014273
    77  H    0.018073
    78  H   -0.005864
    79  H    0.010240
    80  H   -0.004106
    81  H   -0.007342
    82  H   -0.017399
    83  H    0.005342
    84  H    0.016836
    85  H   -0.009716
    86  H   -0.021790
    87  H   -0.003442
    88  H    0.006493
    89  H   -0.003163
    90  H   -0.020641
    91  H   -0.016057
    92  H    0.005083
    93  H   -0.014704
    94  H   -0.002098
    95  H    0.012878
    96  H   -0.009716
    97  H    0.002041
    98  H   -0.002482
    99  H    0.018754
   100  H    0.017751
   101  H    0.024251
   102  H   -0.003781
   103  H    0.011323
   104  H   -0.025942
   105  H   -0.018163
   106  H   -0.004397
   107  H    0.011548
   108  H   -0.022702
   109  H   -0.042855
   110  H   -0.030139
   111  H   -0.030972
   112  H   -0.023055
   113  H   -0.033750
   114  H   -0.028507
   115  H   -0.008399
   116  H   -0.020215
   117  H   -0.014702
   118  H   -0.036487
   119  H   -0.028224
   120  H   -0.021673
   121  H   -0.029208
   122  H   -0.036471
   123  H   -0.025690
   124  H   -0.034284
   125  H   -0.010457
   126  H   -0.007523
   127  H   -0.022883
   128  H   -0.029066
   129  H   -0.036852
   130  H   -0.042144
   131  H   -0.026405
   132  H   -0.029357
   133  H   -0.035825
   134  H   -0.029686
   135  H   -0.009076
   136  H   -0.009914
   137  H   -0.012663
   138  H   -0.006408
   139  H   -0.019158
   140  H   -0.033498
 Sum of Mulliken charges =  -0.00000

 Dipole moment (field-independent basis, Debye):
    X=              4.3510    Y=              2.0521    Z=             -2.1646  Tot=              5.2753
 Quadrupole moment (field-independent basis, Debye-Ang):
   XX=           -359.6903   YY=           -433.9729   ZZ=           -419.2471
   XY=             -1.9571   XZ=              7.9364   YZ=              9.7686

 Normal termination of Gaussian 16 at Wed May  4 05:57:42 2022.
