 Gaussian 16, Revision A.03,
 Gaussian 16:  ES64L-G16RevA.03 25-Dec-2016

 -----------------------------------
 #p cam-b3lyp/Def2SVP td=(nstates=5)
 -----------------------------------

 --------------------------------------------------------
 step_1401_chromophore_12 TDDFT with cam-b3lyp functional
 --------------------------------------------------------
 Symbolic Z-matrix:
 Charge =  0 Multiplicity = 1

                         Standard orientation:
 ---------------------------------------------------------------------
 Center     Atomic      Atomic             Coordinates (Angstroms)
 Number     Number       Type             X           Y           Z
 ---------------------------------------------------------------------
      1         12           0       -4.218405    0.240191   -0.270668
      2          6           0       -2.668417   -2.766722    0.704646
      3          6           0       -0.967380    1.618989   -0.580454
      4          6           0       -5.535911    3.185372   -1.064470
      5          6           0       -7.336671   -1.149448    0.419302
      6          7           0       -2.056404   -0.451645    0.014372
      7          6           0       -1.711087   -1.798290    0.368841
      8          6           0       -0.146603   -1.914889    0.207405
      9          6           0        0.374053   -0.454715    0.133572
     10          6           0       -0.924017    0.291207   -0.154529
     11          6           0        1.031754    0.106099    1.457656
     12          6           0        0.222985   -2.853100   -1.075395
     13          6           0        1.390369   -3.795298   -0.877733
     14          6           0        2.256224   -4.056544   -2.118290
     15          8           0        1.935003   -3.795728   -3.263580
     16          8           0        3.479567   -4.617378   -1.722168
     17          7           0       -3.380717    2.218011   -0.689961
     18          6           0       -2.006792    2.518908   -0.812709
     19          6           0       -1.851760    3.950656   -1.264469
     20          6           0       -3.253147    4.375701   -1.465709
     21          6           0       -4.130861    3.301990   -0.970544
     22          6           0       -0.532475    4.539459   -1.505184
     23          6           0       -3.681309    5.654926   -2.038208
     24          8           0       -4.878785    5.974221   -2.122837
     25          6           0       -2.636733    6.602153   -2.585802
     26          7           0       -6.041624    0.975742   -0.137090
     27          6           0       -6.403977    2.201153   -0.631338
     28          6           0       -7.933855    2.283867   -0.992716
     29          6           0       -8.501862    0.895512   -0.543349
     30          6           0       -7.220069    0.166751   -0.107459
     31          6           0       -8.667920    3.539318   -0.314472
     32          6           0       -9.154294    0.070253   -1.657945
     33          6           0      -10.095579    0.920789   -2.644441
     34          7           0       -4.934915   -1.521542    0.549177
     35          6           0       -6.214413   -1.988280    0.755457
     36          6           0       -6.186963   -3.292929    1.320384
     37          6           0       -4.847477   -3.614752    1.319946
     38          6           0       -4.077149   -2.551340    0.779195
     39          6           0       -7.382748   -4.072709    1.820974
     40          6           0       -3.971725   -4.741584    1.615069
     41          8           0       -4.182983   -5.860673    2.000445
     42          6           0       -2.464522   -4.232622    1.184921
     43          6           0       -1.527181   -4.385146    2.341788
     44          8           0       -1.643113   -3.850610    3.445855
     45          8           0       -0.550291   -5.278724    1.962560
     46          6           0        0.591820   -5.434237    2.864904
     47          6           0        4.624272   -4.329036   -2.639228
     48          6           0        5.816161   -4.051462   -1.770750
     49          6           0        6.960222   -3.386891   -2.095824
     50          6           0        7.328411   -2.853844   -3.513189
     51          6           0        8.080355   -3.269176   -1.072081
     52          6           0        8.468723   -1.825272   -0.636079
     53          6           0        9.743135   -1.287050   -1.342203
     54          6           0        9.863475    0.281243   -1.400090
     55          6           0       11.118821    0.555088   -2.384451
     56          6           0       10.150125    0.941629   -0.000582
     57          6           0        9.406470    2.309485    0.100737
     58          6           0        8.510046    2.409138    1.445074
     59          6           0        7.379136    3.464455    1.265711
     60          6           0        8.011754    4.866870    1.425276
     61          6           0        6.269083    3.255100    2.300598
     62          6           0        5.076170    4.191447    1.997637
     63          6           0        3.749483    3.634303    2.537144
     64          6           0        2.938336    4.700499    3.386417
     65          6           0        3.362260    4.511978    4.845717
     66          6           0        1.396222    4.434681    3.283178
     67          1           0        0.012842    2.100542   -0.591817
     68          1           0       -6.011610    4.083752   -1.463823
     69          1           0       -8.393830   -1.415100    0.348194
     70          1           0        0.314797   -2.375428    1.081289
     71          1           0        1.095765   -0.352749   -0.676941
     72          1           0        0.463293    0.947456    1.851980
     73          1           0        1.980054    0.621575    1.305736
     74          1           0        1.325935   -0.668790    2.166283
     75          1           0        0.369363   -2.138983   -1.885852
     76          1           0       -0.682980   -3.382168   -1.367079
     77          1           0        1.075317   -4.800410   -0.598437
     78          1           0        2.061745   -3.509775   -0.069094
     79          1           0       -0.104388    4.386336   -2.495870
     80          1           0        0.188743    4.079780   -0.829601
     81          1           0       -0.433625    5.614085   -1.352742
     82          1           0       -3.095427    7.340402   -3.243058
     83          1           0       -1.937170    6.015728   -3.181900
     84          1           0       -2.219948    7.204667   -1.778021
     85          1           0       -7.986352    2.352271   -2.079207
     86          1           0       -9.202381    1.130041    0.257172
     87          1           0       -9.581548    3.736474   -0.874847
     88          1           0       -8.063791    4.445107   -0.369795
     89          1           0       -8.833497    3.317423    0.739707
     90          1           0       -9.797809   -0.694419   -1.222680
     91          1           0       -8.539275   -0.569631   -2.290120
     92          1           0      -10.137856    1.991605   -2.448645
     93          1           0      -11.103052    0.537992   -2.481161
     94          1           0       -9.848111    0.718204   -3.686119
     95          1           0       -7.177411   -5.130317    1.990411
     96          1           0       -8.222067   -3.892747    1.150243
     97          1           0       -7.655018   -3.599570    2.764399
     98          1           0       -2.211119   -4.983489    0.435949
     99          1           0        0.882460   -4.536703    3.410804
    100          1           0        1.431573   -5.736132    2.238208
    101          1           0        0.223813   -6.204853    3.542775
    102          1           0        4.438576   -3.437750   -3.238535
    103          1           0        4.814693   -5.073540   -3.412771
    104          1           0        5.693562   -4.525414   -0.796536
    105          1           0        6.779186   -3.260225   -4.363520
    106          1           0        8.322927   -3.187201   -3.807405
    107          1           0        7.285937   -1.766526   -3.572841
    108          1           0        8.970678   -3.761162   -1.463284
    109          1           0        7.831343   -3.814627   -0.161935
    110          1           0        8.693917   -1.805823    0.430318
    111          1           0        7.694403   -1.067210   -0.757911
    112          1           0        9.881045   -1.745591   -2.320417
    113          1           0       10.588211   -1.566361   -0.713264
    114          1           0        8.875447    0.562496   -1.762873
    115          1           0       11.717608   -0.355955   -2.400259
    116          1           0       11.677800    1.408215   -2.001028
    117          1           0       10.923050    0.840243   -3.417871
    118          1           0       11.209689    1.178056    0.095946
    119          1           0        9.909890    0.338910    0.875899
    120          1           0        8.819504    2.556436   -0.784206
    121          1           0       10.199244    3.055617    0.155939
    122          1           0        9.250392    2.843382    2.115687
    123          1           0        8.219900    1.423849    1.810345
    124          1           0        7.113891    3.304337    0.220413
    125          1           0        9.097710    4.891446    1.332704
    126          1           0        7.696662    5.456689    2.285532
    127          1           0        7.588428    5.345012    0.541828
    128          1           0        6.756599    3.412498    3.262653
    129          1           0        5.988744    2.202593    2.278366
    130          1           0        4.998278    4.312937    0.917382
    131          1           0        5.210531    5.213816    2.350024
    132          1           0        3.942511    2.788226    3.197413
    133          1           0        3.104590    3.299458    1.724645
    134          1           0        3.035270    5.736105    3.061119
    135          1           0        3.132502    5.440433    5.368563
    136          1           0        4.386504    4.178872    5.009732
    137          1           0        2.689919    3.688470    5.086045
    138          1           0        0.864258    4.662922    4.206241
    139          1           0        1.170188    3.485749    2.795839
    140          1           0        0.958449    5.071207    2.514859
 ---------------------------------------------------------------------

 SCF Done:  E(RCAM-B3LYP) =  -3007.18552301     A.U. after   17 cycles

 Excitation energies and oscillator strengths:

 Excited State   1:      Singlet-A      1.6586 eV  747.54 nm  f=0.3840  <S**2>=0.000
     245 -> 248        0.16610
     246 -> 247        0.68950
     245 <- 248        0.10597
 This state for optimization and/or second-order correction.
 Total Energy, E(TD-HF/TD-DFT) =  -3007.12457206
 Copying the excited state density for this state as the 1-particle RhoCI density.

 Excited State   2:      Singlet-A      2.1884 eV  566.54 nm  f=0.1227  <S**2>=0.000
     245 -> 247        0.64599
     246 -> 248       -0.27084

 Excited State   3:      Singlet-A      3.2192 eV  385.14 nm  f=0.0014  <S**2>=0.000
     242 -> 247       -0.12479
     243 -> 247       -0.34468
     244 -> 247        0.55154
     246 -> 248       -0.17174

 Excited State   4:      Singlet-A      3.3947 eV  365.23 nm  f=0.0003  <S**2>=0.000
     240 -> 247        0.52849
     240 -> 249        0.31570
     243 -> 247        0.13607
     244 -> 247        0.23988

 Excited State   5:      Singlet-A      3.4773 eV  356.55 nm  f=0.0569  <S**2>=0.000
     240 -> 247       -0.21468
     242 -> 247        0.16493
     243 -> 247        0.41646
     244 -> 247        0.34442
     246 -> 248        0.31400

 The electronic state is 1-A.
 Alpha  occ. eigenvalues --  -46.88363 -19.25047 -19.25040 -19.20836 -19.19536
 Alpha  occ. eigenvalues --  -19.19015 -19.18423 -14.42864 -14.41786 -14.39678
 Alpha  occ. eigenvalues --  -14.39105 -10.40050 -10.39121 -10.34662 -10.34638
 Alpha  occ. eigenvalues --  -10.32413 -10.31891 -10.31655 -10.31579 -10.31039
 Alpha  occ. eigenvalues --  -10.30987 -10.30830 -10.30673 -10.30530 -10.29258
 Alpha  occ. eigenvalues --  -10.29110 -10.29014 -10.28921 -10.28655 -10.28162
 Alpha  occ. eigenvalues --  -10.28027 -10.27988 -10.27944 -10.27900 -10.27859
 Alpha  occ. eigenvalues --  -10.27712 -10.27348 -10.27322 -10.26891 -10.26870
 Alpha  occ. eigenvalues --  -10.26809 -10.26743 -10.26741 -10.26726 -10.26480
 Alpha  occ. eigenvalues --  -10.26274 -10.26154 -10.26130 -10.26081 -10.25723
 Alpha  occ. eigenvalues --  -10.25700 -10.25685 -10.25665 -10.25422 -10.25403
 Alpha  occ. eigenvalues --  -10.25389 -10.25370 -10.25329 -10.25305 -10.25304
 Alpha  occ. eigenvalues --  -10.25072 -10.25070 -10.24722 -10.24585 -10.24551
 Alpha  occ. eigenvalues --  -10.24408  -3.16978  -1.91862  -1.91446  -1.91280
 Alpha  occ. eigenvalues --   -1.15617  -1.15540  -1.10526  -1.08809  -1.08105
 Alpha  occ. eigenvalues --   -1.07251  -1.03475  -1.02588  -1.02085  -1.01186
 Alpha  occ. eigenvalues --   -0.91355  -0.90293  -0.90020  -0.89118  -0.88999
 Alpha  occ. eigenvalues --   -0.88536  -0.88387  -0.87703  -0.87202  -0.86575
 Alpha  occ. eigenvalues --   -0.85996  -0.85666  -0.84410  -0.83223  -0.82887
 Alpha  occ. eigenvalues --   -0.82526  -0.81777  -0.81149  -0.80835  -0.80176
 Alpha  occ. eigenvalues --   -0.79606  -0.78749  -0.78012  -0.77114  -0.76226
 Alpha  occ. eigenvalues --   -0.75826  -0.75561  -0.75032  -0.74936  -0.74209
 Alpha  occ. eigenvalues --   -0.73264  -0.72717  -0.71575  -0.70665  -0.69597
 Alpha  occ. eigenvalues --   -0.68460  -0.68127  -0.67257  -0.66945  -0.65388
 Alpha  occ. eigenvalues --   -0.65335  -0.65065  -0.64231  -0.64097  -0.63850
 Alpha  occ. eigenvalues --   -0.63780  -0.63565  -0.62959  -0.62143  -0.60690
 Alpha  occ. eigenvalues --   -0.60409  -0.59580  -0.58895  -0.58344  -0.57397
 Alpha  occ. eigenvalues --   -0.56981  -0.56856  -0.56179  -0.55915  -0.55455
 Alpha  occ. eigenvalues --   -0.54964  -0.54633  -0.54543  -0.54475  -0.54033
 Alpha  occ. eigenvalues --   -0.53932  -0.53376  -0.53142  -0.52814  -0.52738
 Alpha  occ. eigenvalues --   -0.52675  -0.52643  -0.52514  -0.52309  -0.51938
 Alpha  occ. eigenvalues --   -0.51582  -0.51137  -0.50960  -0.50909  -0.50550
 Alpha  occ. eigenvalues --   -0.50347  -0.50201  -0.50103  -0.49969  -0.49854
 Alpha  occ. eigenvalues --   -0.49401  -0.49278  -0.49171  -0.48844  -0.48664
 Alpha  occ. eigenvalues --   -0.48625  -0.48097  -0.47882  -0.47774  -0.47531
 Alpha  occ. eigenvalues --   -0.47464  -0.47111  -0.47018  -0.46783  -0.46677
 Alpha  occ. eigenvalues --   -0.46326  -0.46171  -0.45964  -0.45844  -0.45565
 Alpha  occ. eigenvalues --   -0.45527  -0.45415  -0.45172  -0.45018  -0.44655
 Alpha  occ. eigenvalues --   -0.44588  -0.44415  -0.44319  -0.43927  -0.43754
 Alpha  occ. eigenvalues --   -0.43727  -0.43585  -0.43541  -0.43274  -0.43070
 Alpha  occ. eigenvalues --   -0.42966  -0.42771  -0.42608  -0.42376  -0.42232
 Alpha  occ. eigenvalues --   -0.41969  -0.41910  -0.41755  -0.41671  -0.41536
 Alpha  occ. eigenvalues --   -0.41407  -0.41237  -0.40928  -0.40772  -0.40649
 Alpha  occ. eigenvalues --   -0.40551  -0.39859  -0.39653  -0.39390  -0.39114
 Alpha  occ. eigenvalues --   -0.38572  -0.38321  -0.38298  -0.38035  -0.37602
 Alpha  occ. eigenvalues --   -0.37181  -0.37134  -0.37103  -0.36991  -0.36700
 Alpha  occ. eigenvalues --   -0.36287  -0.36222  -0.35540  -0.34776  -0.34500
 Alpha  occ. eigenvalues --   -0.34192  -0.34084  -0.32886  -0.31323  -0.30889
 Alpha  occ. eigenvalues --   -0.30395  -0.30112  -0.29894  -0.29512  -0.24270
 Alpha  occ. eigenvalues --   -0.21206
 Alpha virt. eigenvalues --   -0.09058  -0.01543   0.00033   0.02261   0.02644
 Alpha virt. eigenvalues --    0.04230   0.05007   0.05155   0.05614   0.06007
 Alpha virt. eigenvalues --    0.07308   0.07860   0.08369   0.08453   0.09173

 Mulliken charges:
               1
     1  Mg   0.826251
     2  C    0.024129
     3  C   -0.047934
     4  C   -0.093108
     5  C   -0.051528
     6  N   -0.285221
     7  C   -0.026674
     8  C   -0.036157
     9  C   -0.028028
    10  C    0.014593
    11  C    0.048439
    12  C    0.092927
    13  C    0.040580
    14  C    0.164482
    15  O   -0.211662
    16  O   -0.372340
    17  N   -0.345920
    18  C    0.127016
    19  C   -0.091846
    20  C   -0.036493
    21  C    0.145032
    22  C    0.082681
    23  C   -0.023207
    24  O   -0.223149
    25  C    0.049407
    26  N   -0.382601
    27  C    0.104564
    28  C   -0.078391
    29  C    0.027495
    30  C    0.013272
    31  C    0.056525
    32  C   -0.009807
    33  C   -0.013431
    34  N   -0.363633
    35  C    0.139255
    36  C   -0.172834
    37  C   -0.016393
    38  C    0.114867
    39  C    0.142546
    40  C    0.056704
    41  O   -0.142706
    42  C   -0.049998
    43  C    0.200562
    44  O   -0.224190
    45  O   -0.345847
    46  C    0.171722
    47  C    0.284093
    48  C   -0.150638
    49  C   -0.112807
    50  C    0.052956
    51  C    0.091155
    52  C    0.017896
    53  C   -0.004426
    54  C   -0.130223
    55  C    0.043323
    56  C    0.061175
    57  C   -0.021756
    58  C    0.022437
    59  C   -0.148368
    60  C    0.037774
    61  C    0.055386
    62  C    0.053586
    63  C    0.049335
    64  C   -0.175324
    65  C    0.042145
    66  C    0.033380
    67  H   -0.044636
    68  H    0.005482
    69  H   -0.026616
    70  H    0.002066
    71  H    0.016473
    72  H    0.039327
    73  H    0.003216
    74  H    0.026930
    75  H    0.015038
    76  H    0.017537
    77  H    0.048631
    78  H    0.025266
    79  H    0.041285
    80  H    0.022182
    81  H    0.023126
    82  H    0.020606
    83  H    0.032716
    84  H    0.045969
    85  H    0.025257
    86  H    0.013396
    87  H    0.019352
    88  H    0.030108
    89  H    0.020446
    90  H    0.007607
    91  H    0.014949
    92  H    0.023311
    93  H    0.009595
    94  H    0.021540
    95  H    0.038477
    96  H    0.012114
    97  H    0.027006
    98  H    0.040191
    99  H    0.041566
   100  H    0.038597
   101  H    0.048782
   102  H    0.025227
   103  H    0.038210
   104  H    0.009161
   105  H    0.007711
   106  H    0.019419
   107  H    0.033961
   108  H    0.006852
   109  H   -0.009666
   110  H   -0.001828
   111  H   -0.004167
   112  H    0.003000
   113  H   -0.006387
   114  H   -0.000322
   115  H    0.015130
   116  H    0.002963
   117  H    0.010135
   118  H   -0.006037
   119  H   -0.001047
   120  H    0.003235
   121  H   -0.002648
   122  H   -0.007600
   123  H    0.000743
   124  H   -0.004145
   125  H    0.013913
   126  H    0.017172
   127  H    0.001275
   128  H   -0.001441
   129  H   -0.007337
   130  H   -0.012123
   131  H    0.001251
   132  H   -0.001367
   133  H   -0.010866
   134  H    0.000625
   135  H    0.015494
   136  H    0.012941
   137  H    0.011088
   138  H    0.019884
   139  H   -0.000500
   140  H   -0.009848
 Sum of Mulliken charges =  -0.00000

 Dipole moment (field-independent basis, Debye):
    X=              5.3301    Y=              3.2539    Z=             -2.6221  Tot=              6.7730
 Quadrupole moment (field-independent basis, Debye-Ang):
   XX=           -362.0975   YY=           -430.6275   ZZ=           -419.3612
   XY=             -5.2764   XZ=              9.5714   YZ=              8.0472

 Normal termination of Gaussian 16 at Wed May  4 04:56:56 2022.
