 Gaussian 16, Revision A.03,
 Gaussian 16:  ES64L-G16RevA.03 25-Dec-2016

 ---------------------------------
 #p PBE1PBE/Def2SVP td=(nstates=5)
 ---------------------------------

 ------------------------------------------------------
 step_1401_chromophore_12 TDDFT with PBE1PBE functional
 ------------------------------------------------------
 Symbolic Z-matrix:
 Charge =  0 Multiplicity = 1

                         Standard orientation:
 ---------------------------------------------------------------------
 Center     Atomic      Atomic             Coordinates (Angstroms)
 Number     Number       Type             X           Y           Z
 ---------------------------------------------------------------------
      1         12           0       -4.218405    0.240191   -0.270668
      2          6           0       -2.668417   -2.766722    0.704646
      3          6           0       -0.967380    1.618989   -0.580454
      4          6           0       -5.535911    3.185372   -1.064470
      5          6           0       -7.336671   -1.149448    0.419302
      6          7           0       -2.056404   -0.451645    0.014372
      7          6           0       -1.711087   -1.798290    0.368841
      8          6           0       -0.146603   -1.914889    0.207405
      9          6           0        0.374053   -0.454715    0.133572
     10          6           0       -0.924017    0.291207   -0.154529
     11          6           0        1.031754    0.106099    1.457656
     12          6           0        0.222985   -2.853100   -1.075395
     13          6           0        1.390369   -3.795298   -0.877733
     14          6           0        2.256224   -4.056544   -2.118290
     15          8           0        1.935003   -3.795728   -3.263580
     16          8           0        3.479567   -4.617378   -1.722168
     17          7           0       -3.380717    2.218011   -0.689961
     18          6           0       -2.006792    2.518908   -0.812709
     19          6           0       -1.851760    3.950656   -1.264469
     20          6           0       -3.253147    4.375701   -1.465709
     21          6           0       -4.130861    3.301990   -0.970544
     22          6           0       -0.532475    4.539459   -1.505184
     23          6           0       -3.681309    5.654926   -2.038208
     24          8           0       -4.878785    5.974221   -2.122837
     25          6           0       -2.636733    6.602153   -2.585802
     26          7           0       -6.041624    0.975742   -0.137090
     27          6           0       -6.403977    2.201153   -0.631338
     28          6           0       -7.933855    2.283867   -0.992716
     29          6           0       -8.501862    0.895512   -0.543349
     30          6           0       -7.220069    0.166751   -0.107459
     31          6           0       -8.667920    3.539318   -0.314472
     32          6           0       -9.154294    0.070253   -1.657945
     33          6           0      -10.095579    0.920789   -2.644441
     34          7           0       -4.934915   -1.521542    0.549177
     35          6           0       -6.214413   -1.988280    0.755457
     36          6           0       -6.186963   -3.292929    1.320384
     37          6           0       -4.847477   -3.614752    1.319946
     38          6           0       -4.077149   -2.551340    0.779195
     39          6           0       -7.382748   -4.072709    1.820974
     40          6           0       -3.971725   -4.741584    1.615069
     41          8           0       -4.182983   -5.860673    2.000445
     42          6           0       -2.464522   -4.232622    1.184921
     43          6           0       -1.527181   -4.385146    2.341788
     44          8           0       -1.643113   -3.850610    3.445855
     45          8           0       -0.550291   -5.278724    1.962560
     46          6           0        0.591820   -5.434237    2.864904
     47          6           0        4.624272   -4.329036   -2.639228
     48          6           0        5.816161   -4.051462   -1.770750
     49          6           0        6.960222   -3.386891   -2.095824
     50          6           0        7.328411   -2.853844   -3.513189
     51          6           0        8.080355   -3.269176   -1.072081
     52          6           0        8.468723   -1.825272   -0.636079
     53          6           0        9.743135   -1.287050   -1.342203
     54          6           0        9.863475    0.281243   -1.400090
     55          6           0       11.118821    0.555088   -2.384451
     56          6           0       10.150125    0.941629   -0.000582
     57          6           0        9.406470    2.309485    0.100737
     58          6           0        8.510046    2.409138    1.445074
     59          6           0        7.379136    3.464455    1.265711
     60          6           0        8.011754    4.866870    1.425276
     61          6           0        6.269083    3.255100    2.300598
     62          6           0        5.076170    4.191447    1.997637
     63          6           0        3.749483    3.634303    2.537144
     64          6           0        2.938336    4.700499    3.386417
     65          6           0        3.362260    4.511978    4.845717
     66          6           0        1.396222    4.434681    3.283178
     67          1           0        0.012842    2.100542   -0.591817
     68          1           0       -6.011610    4.083752   -1.463823
     69          1           0       -8.393830   -1.415100    0.348194
     70          1           0        0.314797   -2.375428    1.081289
     71          1           0        1.095765   -0.352749   -0.676941
     72          1           0        0.463293    0.947456    1.851980
     73          1           0        1.980054    0.621575    1.305736
     74          1           0        1.325935   -0.668790    2.166283
     75          1           0        0.369363   -2.138983   -1.885852
     76          1           0       -0.682980   -3.382168   -1.367079
     77          1           0        1.075317   -4.800410   -0.598437
     78          1           0        2.061745   -3.509775   -0.069094
     79          1           0       -0.104388    4.386336   -2.495870
     80          1           0        0.188743    4.079780   -0.829601
     81          1           0       -0.433625    5.614085   -1.352742
     82          1           0       -3.095427    7.340402   -3.243058
     83          1           0       -1.937170    6.015728   -3.181900
     84          1           0       -2.219948    7.204667   -1.778021
     85          1           0       -7.986352    2.352271   -2.079207
     86          1           0       -9.202381    1.130041    0.257172
     87          1           0       -9.581548    3.736474   -0.874847
     88          1           0       -8.063791    4.445107   -0.369795
     89          1           0       -8.833497    3.317423    0.739707
     90          1           0       -9.797809   -0.694419   -1.222680
     91          1           0       -8.539275   -0.569631   -2.290120
     92          1           0      -10.137856    1.991605   -2.448645
     93          1           0      -11.103052    0.537992   -2.481161
     94          1           0       -9.848111    0.718204   -3.686119
     95          1           0       -7.177411   -5.130317    1.990411
     96          1           0       -8.222067   -3.892747    1.150243
     97          1           0       -7.655018   -3.599570    2.764399
     98          1           0       -2.211119   -4.983489    0.435949
     99          1           0        0.882460   -4.536703    3.410804
    100          1           0        1.431573   -5.736132    2.238208
    101          1           0        0.223813   -6.204853    3.542775
    102          1           0        4.438576   -3.437750   -3.238535
    103          1           0        4.814693   -5.073540   -3.412771
    104          1           0        5.693562   -4.525414   -0.796536
    105          1           0        6.779186   -3.260225   -4.363520
    106          1           0        8.322927   -3.187201   -3.807405
    107          1           0        7.285937   -1.766526   -3.572841
    108          1           0        8.970678   -3.761162   -1.463284
    109          1           0        7.831343   -3.814627   -0.161935
    110          1           0        8.693917   -1.805823    0.430318
    111          1           0        7.694403   -1.067210   -0.757911
    112          1           0        9.881045   -1.745591   -2.320417
    113          1           0       10.588211   -1.566361   -0.713264
    114          1           0        8.875447    0.562496   -1.762873
    115          1           0       11.717608   -0.355955   -2.400259
    116          1           0       11.677800    1.408215   -2.001028
    117          1           0       10.923050    0.840243   -3.417871
    118          1           0       11.209689    1.178056    0.095946
    119          1           0        9.909890    0.338910    0.875899
    120          1           0        8.819504    2.556436   -0.784206
    121          1           0       10.199244    3.055617    0.155939
    122          1           0        9.250392    2.843382    2.115687
    123          1           0        8.219900    1.423849    1.810345
    124          1           0        7.113891    3.304337    0.220413
    125          1           0        9.097710    4.891446    1.332704
    126          1           0        7.696662    5.456689    2.285532
    127          1           0        7.588428    5.345012    0.541828
    128          1           0        6.756599    3.412498    3.262653
    129          1           0        5.988744    2.202593    2.278366
    130          1           0        4.998278    4.312937    0.917382
    131          1           0        5.210531    5.213816    2.350024
    132          1           0        3.942511    2.788226    3.197413
    133          1           0        3.104590    3.299458    1.724645
    134          1           0        3.035270    5.736105    3.061119
    135          1           0        3.132502    5.440433    5.368563
    136          1           0        4.386504    4.178872    5.009732
    137          1           0        2.689919    3.688470    5.086045
    138          1           0        0.864258    4.662922    4.206241
    139          1           0        1.170188    3.485749    2.795839
    140          1           0        0.958449    5.071207    2.514859
 ---------------------------------------------------------------------

 SCF Done:  E(RPBE1PBE) =  -3005.37316766     A.U. after   15 cycles

 Excitation energies and oscillator strengths:

 Excited State   1:      Singlet-A      1.7996 eV  688.95 nm  f=0.3716  <S**2>=0.000
     245 -> 248        0.16256
     246 -> 247        0.69743
     246 <- 247       -0.11493
 This state for optimization and/or second-order correction.
 Total Energy, E(TD-HF/TD-DFT) =  -3005.30703281
 Copying the excited state density for this state as the 1-particle RhoCI density.

 Excited State   2:      Singlet-A      2.1879 eV  566.67 nm  f=0.1165  <S**2>=0.000
     245 -> 247        0.65639
     246 -> 248       -0.24736

 Excited State   3:      Singlet-A      2.8163 eV  440.24 nm  f=0.0023  <S**2>=0.000
     240 -> 247       -0.16375
     242 -> 247       -0.25872
     242 -> 249       -0.10635
     243 -> 247       -0.13661
     244 -> 247        0.59042

 Excited State   4:      Singlet-A      2.9362 eV  422.26 nm  f=0.0025  <S**2>=0.000
     242 -> 247        0.23207
     243 -> 247        0.58672
     244 -> 247        0.27108

 Excited State   5:      Singlet-A      2.9766 eV  416.53 nm  f=0.0002  <S**2>=0.000
     240 -> 247        0.12120
     242 -> 247        0.55880
     243 -> 247       -0.32232
     244 -> 247        0.21544

 The electronic state is 1-A.
 Alpha  occ. eigenvalues --  -46.91808 -19.25754 -19.25747 -19.21113 -19.19804
 Alpha  occ. eigenvalues --  -19.19459 -19.18422 -14.42271 -14.41497 -14.39242
 Alpha  occ. eigenvalues --  -14.38945 -10.37116 -10.36172 -10.32017 -10.31508
 Alpha  occ. eigenvalues --  -10.29804 -10.29623 -10.29137 -10.29066 -10.28890
 Alpha  occ. eigenvalues --  -10.28630 -10.28394 -10.28045 -10.27806 -10.27338
 Alpha  occ. eigenvalues --  -10.26929 -10.26873 -10.26692 -10.26625 -10.25843
 Alpha  occ. eigenvalues --  -10.25761 -10.25737 -10.25649 -10.25524 -10.25360
 Alpha  occ. eigenvalues --  -10.25032 -10.25003 -10.24807 -10.24783 -10.24713
 Alpha  occ. eigenvalues --  -10.24631 -10.24532 -10.24181 -10.24134 -10.24019
 Alpha  occ. eigenvalues --  -10.23832 -10.23782 -10.23641 -10.23399 -10.23359
 Alpha  occ. eigenvalues --  -10.23269 -10.23211 -10.23148 -10.23116 -10.23002
 Alpha  occ. eigenvalues --  -10.22945 -10.22908 -10.22817 -10.22783 -10.22746
 Alpha  occ. eigenvalues --  -10.22653 -10.22639 -10.22424 -10.22065 -10.21963
 Alpha  occ. eigenvalues --  -10.21881  -3.14001  -1.86826  -1.86391  -1.86224
 Alpha  occ. eigenvalues --   -1.10428  -1.10339  -1.05500  -1.03295  -1.02991
 Alpha  occ. eigenvalues --   -1.02103  -0.98357  -0.97115  -0.96637  -0.95781
 Alpha  occ. eigenvalues --   -0.85795  -0.84368  -0.84096  -0.83379  -0.83189
 Alpha  occ. eigenvalues --   -0.82610  -0.82580  -0.81788  -0.81418  -0.80880
 Alpha  occ. eigenvalues --   -0.80531  -0.79885  -0.78551  -0.77538  -0.77094
 Alpha  occ. eigenvalues --   -0.76669  -0.75936  -0.75435  -0.75115  -0.74478
 Alpha  occ. eigenvalues --   -0.73752  -0.72810  -0.72295  -0.71495  -0.70395
 Alpha  occ. eigenvalues --   -0.70190  -0.69585  -0.69301  -0.69115  -0.68354
 Alpha  occ. eigenvalues --   -0.67630  -0.67178  -0.65949  -0.64983  -0.64016
 Alpha  occ. eigenvalues --   -0.62701  -0.62544  -0.61731  -0.61179  -0.59921
 Alpha  occ. eigenvalues --   -0.59560  -0.59442  -0.58568  -0.58427  -0.58336
 Alpha  occ. eigenvalues --   -0.58311  -0.57672  -0.57109  -0.56757  -0.55080
 Alpha  occ. eigenvalues --   -0.54849  -0.54162  -0.53515  -0.53044  -0.52074
 Alpha  occ. eigenvalues --   -0.51530  -0.51325  -0.50799  -0.50261  -0.49933
 Alpha  occ. eigenvalues --   -0.49522  -0.49140  -0.49090  -0.48818  -0.48619
 Alpha  occ. eigenvalues --   -0.48432  -0.47748  -0.47690  -0.47445  -0.47131
 Alpha  occ. eigenvalues --   -0.47071  -0.47012  -0.46866  -0.46706  -0.46560
 Alpha  occ. eigenvalues --   -0.46159  -0.45868  -0.45549  -0.45451  -0.45105
 Alpha  occ. eigenvalues --   -0.45001  -0.44829  -0.44554  -0.44440  -0.44357
 Alpha  occ. eigenvalues --   -0.43993  -0.43876  -0.43736  -0.43399  -0.43339
 Alpha  occ. eigenvalues --   -0.43257  -0.42739  -0.42463  -0.42327  -0.42238
 Alpha  occ. eigenvalues --   -0.42077  -0.41769  -0.41693  -0.41367  -0.41287
 Alpha  occ. eigenvalues --   -0.40980  -0.40817  -0.40732  -0.40689  -0.40399
 Alpha  occ. eigenvalues --   -0.40162  -0.40088  -0.40014  -0.39856  -0.39366
 Alpha  occ. eigenvalues --   -0.39344  -0.39258  -0.38991  -0.38745  -0.38571
 Alpha  occ. eigenvalues --   -0.38423  -0.38350  -0.38317  -0.37947  -0.37830
 Alpha  occ. eigenvalues --   -0.37758  -0.37712  -0.37311  -0.37121  -0.37083
 Alpha  occ. eigenvalues --   -0.36873  -0.36739  -0.36504  -0.36442  -0.36322
 Alpha  occ. eigenvalues --   -0.36225  -0.35991  -0.35757  -0.35616  -0.35410
 Alpha  occ. eigenvalues --   -0.35386  -0.34777  -0.34434  -0.34233  -0.34158
 Alpha  occ. eigenvalues --   -0.33365  -0.33288  -0.33006  -0.32839  -0.32656
 Alpha  occ. eigenvalues --   -0.32163  -0.32012  -0.31955  -0.31873  -0.31701
 Alpha  occ. eigenvalues --   -0.31288  -0.31106  -0.30450  -0.29827  -0.29532
 Alpha  occ. eigenvalues --   -0.29206  -0.29060  -0.28415  -0.26987  -0.25709
 Alpha  occ. eigenvalues --   -0.25686  -0.25438  -0.25286  -0.25017  -0.21149
 Alpha  occ. eigenvalues --   -0.18848
 Alpha virt. eigenvalues --   -0.11502  -0.05103  -0.04068  -0.02024  -0.00442
 Alpha virt. eigenvalues --   -0.00329   0.00351   0.00709   0.01031   0.02985
 Alpha virt. eigenvalues --    0.03517   0.04352   0.04510   0.05205   0.05347

 Mulliken charges:
               1
     1  Mg   0.976853
     2  C   -0.000194
     3  C   -0.047935
     4  C   -0.086767
     5  C   -0.037866
     6  N   -0.383358
     7  C    0.044056
     8  C   -0.102044
     9  C   -0.102596
    10  C    0.051739
    11  C   -0.007567
    12  C    0.045420
    13  C   -0.040607
    14  C    0.234557
    15  O   -0.244566
    16  O   -0.402305
    17  N   -0.452211
    18  C    0.148677
    19  C   -0.119696
    20  C   -0.090515
    21  C    0.186913
    22  C    0.024025
    23  C    0.028252
    24  O   -0.263103
    25  C   -0.025287
    26  N   -0.485291
    27  C    0.134320
    28  C   -0.155005
    29  C   -0.050876
    30  C    0.043205
    31  C   -0.001736
    32  C   -0.066821
    33  C   -0.086088
    34  N   -0.488581
    35  C    0.156095
    36  C   -0.187877
    37  C   -0.077628
    38  C    0.173715
    39  C    0.088798
    40  C    0.158433
    41  O   -0.188178
    42  C   -0.147671
    43  C    0.290207
    44  O   -0.259570
    45  O   -0.378589
    46  C    0.117434
    47  C    0.244107
    48  C   -0.159514
    49  C   -0.160934
    50  C   -0.004777
    51  C    0.024727
    52  C   -0.040647
    53  C   -0.060662
    54  C   -0.216268
    55  C   -0.016265
    56  C    0.009452
    57  C   -0.077592
    58  C   -0.033344
    59  C   -0.236379
    60  C   -0.018121
    61  C   -0.003931
    62  C   -0.003263
    63  C   -0.009915
    64  C   -0.264893
    65  C   -0.022037
    66  C   -0.032587
    67  H   -0.013084
    68  H    0.037534
    69  H    0.006135
    70  H    0.043072
    71  H    0.051920
    72  H    0.068586
    73  H    0.031766
    74  H    0.052072
    75  H    0.047477
    76  H    0.050620
    77  H    0.081639
    78  H    0.056445
    79  H    0.066802
    80  H    0.047862
    81  H    0.049876
    82  H    0.047719
    83  H    0.059621
    84  H    0.071734
    85  H    0.063162
    86  H    0.049673
    87  H    0.046893
    88  H    0.057904
    89  H    0.047409
    90  H    0.040308
    91  H    0.047054
    92  H    0.052415
    93  H    0.038449
    94  H    0.050000
    95  H    0.066349
    96  H    0.040657
    97  H    0.057120
    98  H    0.076580
    99  H    0.062022
   100  H    0.059765
   101  H    0.071151
   102  H    0.052063
   103  H    0.063777
   104  H    0.038487
   105  H    0.034389
   106  H    0.044912
   107  H    0.061287
   108  H    0.039909
   109  H    0.022509
   110  H    0.030707
   111  H    0.028452
   112  H    0.036158
   113  H    0.028076
   114  H    0.036365
   115  H    0.041657
   116  H    0.030380
   117  H    0.037971
   118  H    0.026553
   119  H    0.030148
   120  H    0.032965
   121  H    0.029436
   122  H    0.027657
   123  H    0.030964
   124  H    0.033676
   125  H    0.040614
   126  H    0.043861
   127  H    0.029346
   128  H    0.031169
   129  H    0.025681
   130  H    0.021500
   131  H    0.032528
   132  H    0.030322
   133  H    0.023382
   134  H    0.036535
   135  H    0.043909
   136  H    0.041536
   137  H    0.039605
   138  H    0.046973
   139  H    0.030504
   140  H    0.020002
 Sum of Mulliken charges =  -0.00000

 Dipole moment (field-independent basis, Debye):
    X=              4.9047    Y=              2.6934    Z=             -2.4802  Tot=              6.1206
 Quadrupole moment (field-independent basis, Debye-Ang):
   XX=           -352.4480   YY=           -428.9875   ZZ=           -416.9072
   XY=             -3.1578   XZ=              9.1485   YZ=              8.0283

 Normal termination of Gaussian 16 at Wed May  4 05:15:26 2022.
