 Gaussian 16, Revision A.03,
 Gaussian 16:  ES64L-G16RevA.03 25-Dec-2016

 --------------------------------
 #p wB97XD/Def2SVP td=(nstates=5)
 --------------------------------

 -----------------------------------------------------
 step_1401_chromophore_12 TDDFT with wB97XD functional
 -----------------------------------------------------
 Symbolic Z-matrix:
 Charge =  0 Multiplicity = 1

                         Standard orientation:
 ---------------------------------------------------------------------
 Center     Atomic      Atomic             Coordinates (Angstroms)
 Number     Number       Type             X           Y           Z
 ---------------------------------------------------------------------
      1         12           0       -4.218405    0.240191   -0.270668
      2          6           0       -2.668417   -2.766722    0.704646
      3          6           0       -0.967380    1.618989   -0.580454
      4          6           0       -5.535911    3.185372   -1.064470
      5          6           0       -7.336671   -1.149448    0.419302
      6          7           0       -2.056404   -0.451645    0.014372
      7          6           0       -1.711087   -1.798290    0.368841
      8          6           0       -0.146603   -1.914889    0.207405
      9          6           0        0.374053   -0.454715    0.133572
     10          6           0       -0.924017    0.291207   -0.154529
     11          6           0        1.031754    0.106099    1.457656
     12          6           0        0.222985   -2.853100   -1.075395
     13          6           0        1.390369   -3.795298   -0.877733
     14          6           0        2.256224   -4.056544   -2.118290
     15          8           0        1.935003   -3.795728   -3.263580
     16          8           0        3.479567   -4.617378   -1.722168
     17          7           0       -3.380717    2.218011   -0.689961
     18          6           0       -2.006792    2.518908   -0.812709
     19          6           0       -1.851760    3.950656   -1.264469
     20          6           0       -3.253147    4.375701   -1.465709
     21          6           0       -4.130861    3.301990   -0.970544
     22          6           0       -0.532475    4.539459   -1.505184
     23          6           0       -3.681309    5.654926   -2.038208
     24          8           0       -4.878785    5.974221   -2.122837
     25          6           0       -2.636733    6.602153   -2.585802
     26          7           0       -6.041624    0.975742   -0.137090
     27          6           0       -6.403977    2.201153   -0.631338
     28          6           0       -7.933855    2.283867   -0.992716
     29          6           0       -8.501862    0.895512   -0.543349
     30          6           0       -7.220069    0.166751   -0.107459
     31          6           0       -8.667920    3.539318   -0.314472
     32          6           0       -9.154294    0.070253   -1.657945
     33          6           0      -10.095579    0.920789   -2.644441
     34          7           0       -4.934915   -1.521542    0.549177
     35          6           0       -6.214413   -1.988280    0.755457
     36          6           0       -6.186963   -3.292929    1.320384
     37          6           0       -4.847477   -3.614752    1.319946
     38          6           0       -4.077149   -2.551340    0.779195
     39          6           0       -7.382748   -4.072709    1.820974
     40          6           0       -3.971725   -4.741584    1.615069
     41          8           0       -4.182983   -5.860673    2.000445
     42          6           0       -2.464522   -4.232622    1.184921
     43          6           0       -1.527181   -4.385146    2.341788
     44          8           0       -1.643113   -3.850610    3.445855
     45          8           0       -0.550291   -5.278724    1.962560
     46          6           0        0.591820   -5.434237    2.864904
     47          6           0        4.624272   -4.329036   -2.639228
     48          6           0        5.816161   -4.051462   -1.770750
     49          6           0        6.960222   -3.386891   -2.095824
     50          6           0        7.328411   -2.853844   -3.513189
     51          6           0        8.080355   -3.269176   -1.072081
     52          6           0        8.468723   -1.825272   -0.636079
     53          6           0        9.743135   -1.287050   -1.342203
     54          6           0        9.863475    0.281243   -1.400090
     55          6           0       11.118821    0.555088   -2.384451
     56          6           0       10.150125    0.941629   -0.000582
     57          6           0        9.406470    2.309485    0.100737
     58          6           0        8.510046    2.409138    1.445074
     59          6           0        7.379136    3.464455    1.265711
     60          6           0        8.011754    4.866870    1.425276
     61          6           0        6.269083    3.255100    2.300598
     62          6           0        5.076170    4.191447    1.997637
     63          6           0        3.749483    3.634303    2.537144
     64          6           0        2.938336    4.700499    3.386417
     65          6           0        3.362260    4.511978    4.845717
     66          6           0        1.396222    4.434681    3.283178
     67          1           0        0.012842    2.100542   -0.591817
     68          1           0       -6.011610    4.083752   -1.463823
     69          1           0       -8.393830   -1.415100    0.348194
     70          1           0        0.314797   -2.375428    1.081289
     71          1           0        1.095765   -0.352749   -0.676941
     72          1           0        0.463293    0.947456    1.851980
     73          1           0        1.980054    0.621575    1.305736
     74          1           0        1.325935   -0.668790    2.166283
     75          1           0        0.369363   -2.138983   -1.885852
     76          1           0       -0.682980   -3.382168   -1.367079
     77          1           0        1.075317   -4.800410   -0.598437
     78          1           0        2.061745   -3.509775   -0.069094
     79          1           0       -0.104388    4.386336   -2.495870
     80          1           0        0.188743    4.079780   -0.829601
     81          1           0       -0.433625    5.614085   -1.352742
     82          1           0       -3.095427    7.340402   -3.243058
     83          1           0       -1.937170    6.015728   -3.181900
     84          1           0       -2.219948    7.204667   -1.778021
     85          1           0       -7.986352    2.352271   -2.079207
     86          1           0       -9.202381    1.130041    0.257172
     87          1           0       -9.581548    3.736474   -0.874847
     88          1           0       -8.063791    4.445107   -0.369795
     89          1           0       -8.833497    3.317423    0.739707
     90          1           0       -9.797809   -0.694419   -1.222680
     91          1           0       -8.539275   -0.569631   -2.290120
     92          1           0      -10.137856    1.991605   -2.448645
     93          1           0      -11.103052    0.537992   -2.481161
     94          1           0       -9.848111    0.718204   -3.686119
     95          1           0       -7.177411   -5.130317    1.990411
     96          1           0       -8.222067   -3.892747    1.150243
     97          1           0       -7.655018   -3.599570    2.764399
     98          1           0       -2.211119   -4.983489    0.435949
     99          1           0        0.882460   -4.536703    3.410804
    100          1           0        1.431573   -5.736132    2.238208
    101          1           0        0.223813   -6.204853    3.542775
    102          1           0        4.438576   -3.437750   -3.238535
    103          1           0        4.814693   -5.073540   -3.412771
    104          1           0        5.693562   -4.525414   -0.796536
    105          1           0        6.779186   -3.260225   -4.363520
    106          1           0        8.322927   -3.187201   -3.807405
    107          1           0        7.285937   -1.766526   -3.572841
    108          1           0        8.970678   -3.761162   -1.463284
    109          1           0        7.831343   -3.814627   -0.161935
    110          1           0        8.693917   -1.805823    0.430318
    111          1           0        7.694403   -1.067210   -0.757911
    112          1           0        9.881045   -1.745591   -2.320417
    113          1           0       10.588211   -1.566361   -0.713264
    114          1           0        8.875447    0.562496   -1.762873
    115          1           0       11.717608   -0.355955   -2.400259
    116          1           0       11.677800    1.408215   -2.001028
    117          1           0       10.923050    0.840243   -3.417871
    118          1           0       11.209689    1.178056    0.095946
    119          1           0        9.909890    0.338910    0.875899
    120          1           0        8.819504    2.556436   -0.784206
    121          1           0       10.199244    3.055617    0.155939
    122          1           0        9.250392    2.843382    2.115687
    123          1           0        8.219900    1.423849    1.810345
    124          1           0        7.113891    3.304337    0.220413
    125          1           0        9.097710    4.891446    1.332704
    126          1           0        7.696662    5.456689    2.285532
    127          1           0        7.588428    5.345012    0.541828
    128          1           0        6.756599    3.412498    3.262653
    129          1           0        5.988744    2.202593    2.278366
    130          1           0        4.998278    4.312937    0.917382
    131          1           0        5.210531    5.213816    2.350024
    132          1           0        3.942511    2.788226    3.197413
    133          1           0        3.104590    3.299458    1.724645
    134          1           0        3.035270    5.736105    3.061119
    135          1           0        3.132502    5.440433    5.368563
    136          1           0        4.386504    4.178872    5.009732
    137          1           0        2.689919    3.688470    5.086045
    138          1           0        0.864258    4.662922    4.206241
    139          1           0        1.170188    3.485749    2.795839
    140          1           0        0.958449    5.071207    2.514859
 ---------------------------------------------------------------------

 SCF Done:  E(RwB97XD) =  -3007.88369682     A.U. after   19 cycles

 Excitation energies and oscillator strengths:

 Excited State   1:      Singlet-A      1.6136 eV  768.38 nm  f=0.3830  <S**2>=0.000
     245 -> 248        0.17038
     246 -> 247        0.68693
     245 <- 248        0.11387
 This state for optimization and/or second-order correction.
 Total Energy, E(TD-HF/TD-DFT) =  -3007.82439866
 Copying the excited state density for this state as the 1-particle RhoCI density.

 Excited State   2:      Singlet-A      2.1336 eV  581.09 nm  f=0.1198  <S**2>=0.000
     245 -> 247        0.64359
     246 -> 248       -0.27247

 Excited State   3:      Singlet-A      3.2310 eV  383.73 nm  f=0.0023  <S**2>=0.000
     240 -> 249       -0.10511
     242 -> 247       -0.39959
     243 -> 247        0.22418
     244 -> 247        0.46461
     246 -> 248       -0.18944

 Excited State   4:      Singlet-A      3.4034 eV  364.30 nm  f=0.0014  <S**2>=0.000
     240 -> 247        0.54001
     240 -> 249        0.33492
     244 -> 247        0.20672

 Excited State   5:      Singlet-A      3.5167 eV  352.55 nm  f=0.1270  <S**2>=0.000
     240 -> 247       -0.14619
     242 -> 247        0.27890
     243 -> 247       -0.15755
     244 -> 247        0.43785
     245 -> 247        0.11871
     246 -> 248        0.37907

 The electronic state is 1-A.
 Alpha  occ. eigenvalues --  -46.94711 -19.30306 -19.30252 -19.25775 -19.24464
 Alpha  occ. eigenvalues --  -19.23994 -19.23534 -14.47524 -14.46385 -14.44327
 Alpha  occ. eigenvalues --  -14.43662 -10.43873 -10.42953 -10.38661 -10.38627
 Alpha  occ. eigenvalues --  -10.36314 -10.35681 -10.35661 -10.35614 -10.35154
 Alpha  occ. eigenvalues --  -10.35133 -10.34833 -10.34816 -10.34800 -10.33253
 Alpha  occ. eigenvalues --  -10.33188 -10.33098 -10.32989 -10.32585 -10.32209
 Alpha  occ. eigenvalues --  -10.32151 -10.32017 -10.31966 -10.31927 -10.31883
 Alpha  occ. eigenvalues --  -10.31731 -10.31435 -10.31322 -10.30925 -10.30852
 Alpha  occ. eigenvalues --  -10.30733 -10.30684 -10.30664 -10.30617 -10.30438
 Alpha  occ. eigenvalues --  -10.30235 -10.30122 -10.30023 -10.30000 -10.29722
 Alpha  occ. eigenvalues --  -10.29614 -10.29543 -10.29485 -10.29457 -10.29389
 Alpha  occ. eigenvalues --  -10.29340 -10.29332 -10.29251 -10.29243 -10.29195
 Alpha  occ. eigenvalues --  -10.29033 -10.29032 -10.28565 -10.28440 -10.28373
 Alpha  occ. eigenvalues --  -10.28372  -3.20765  -1.94339  -1.93900  -1.93736
 Alpha  occ. eigenvalues --   -1.17774  -1.17715  -1.12711  -1.11086  -1.10326
 Alpha  occ. eigenvalues --   -1.09422  -1.05447  -1.04645  -1.04099  -1.03230
 Alpha  occ. eigenvalues --   -0.93283  -0.92086  -0.91818  -0.91049  -0.90848
 Alpha  occ. eigenvalues --   -0.90331  -0.90312  -0.89504  -0.89189  -0.88503
 Alpha  occ. eigenvalues --   -0.87889  -0.87562  -0.86259  -0.85150  -0.84775
 Alpha  occ. eigenvalues --   -0.84436  -0.83685  -0.83038  -0.82758  -0.82126
 Alpha  occ. eigenvalues --   -0.81454  -0.80766  -0.79899  -0.79008  -0.78078
 Alpha  occ. eigenvalues --   -0.77758  -0.77361  -0.76881  -0.76858  -0.76069
 Alpha  occ. eigenvalues --   -0.75199  -0.74689  -0.73534  -0.72600  -0.71519
 Alpha  occ. eigenvalues --   -0.70363  -0.70129  -0.69278  -0.68844  -0.67317
 Alpha  occ. eigenvalues --   -0.67256  -0.67060  -0.66050  -0.66037  -0.65818
 Alpha  occ. eigenvalues --   -0.65786  -0.65404  -0.64809  -0.64115  -0.62747
 Alpha  occ. eigenvalues --   -0.62353  -0.61538  -0.60877  -0.60342  -0.59369
 Alpha  occ. eigenvalues --   -0.58925  -0.58788  -0.58169  -0.57783  -0.57321
 Alpha  occ. eigenvalues --   -0.56858  -0.56647  -0.56491  -0.56351  -0.55933
 Alpha  occ. eigenvalues --   -0.55864  -0.55244  -0.55109  -0.54789  -0.54678
 Alpha  occ. eigenvalues --   -0.54572  -0.54532  -0.54431  -0.54292  -0.53848
 Alpha  occ. eigenvalues --   -0.53513  -0.53060  -0.52852  -0.52798  -0.52462
 Alpha  occ. eigenvalues --   -0.52270  -0.52118  -0.52073  -0.51895  -0.51802
 Alpha  occ. eigenvalues --   -0.51322  -0.51188  -0.51063  -0.50728  -0.50561
 Alpha  occ. eigenvalues --   -0.50557  -0.50075  -0.49806  -0.49750  -0.49450
 Alpha  occ. eigenvalues --   -0.49362  -0.49075  -0.48929  -0.48670  -0.48616
 Alpha  occ. eigenvalues --   -0.48300  -0.48079  -0.47872  -0.47762  -0.47478
 Alpha  occ. eigenvalues --   -0.47391  -0.47310  -0.47073  -0.46946  -0.46555
 Alpha  occ. eigenvalues --   -0.46484  -0.46328  -0.46202  -0.45846  -0.45668
 Alpha  occ. eigenvalues --   -0.45603  -0.45525  -0.45466  -0.45143  -0.45047
 Alpha  occ. eigenvalues --   -0.44915  -0.44668  -0.44500  -0.44268  -0.44164
 Alpha  occ. eigenvalues --   -0.43987  -0.43839  -0.43657  -0.43571  -0.43402
 Alpha  occ. eigenvalues --   -0.43353  -0.43115  -0.42909  -0.42694  -0.42525
 Alpha  occ. eigenvalues --   -0.42461  -0.41771  -0.41514  -0.41261  -0.41015
 Alpha  occ. eigenvalues --   -0.40440  -0.40175  -0.40165  -0.39916  -0.39563
 Alpha  occ. eigenvalues --   -0.39074  -0.39048  -0.39039  -0.38953  -0.38705
 Alpha  occ. eigenvalues --   -0.38319  -0.38095  -0.37414  -0.36714  -0.36490
 Alpha  occ. eigenvalues --   -0.36049  -0.36046  -0.35106  -0.33541  -0.32900
 Alpha  occ. eigenvalues --   -0.32446  -0.32150  -0.32005  -0.31660  -0.26208
 Alpha  occ. eigenvalues --   -0.23020
 Alpha virt. eigenvalues --   -0.07407   0.00382   0.02060   0.04596   0.05532
 Alpha virt. eigenvalues --    0.06442   0.07199   0.07385   0.07869   0.09448
 Alpha virt. eigenvalues --    0.10167   0.10907   0.11181   0.11929   0.12185

 Mulliken charges:
               1
     1  Mg   0.965784
     2  C    0.003019
     3  C   -0.059374
     4  C   -0.104331
     5  C   -0.056541
     6  N   -0.350931
     7  C    0.011295
     8  C   -0.073552
     9  C   -0.080395
    10  C    0.040718
    11  C    0.004037
    12  C    0.055219
    13  C   -0.022814
    14  C    0.224884
    15  O   -0.242541
    16  O   -0.402360
    17  N   -0.422553
    18  C    0.144196
    19  C   -0.107934
    20  C   -0.080660
    21  C    0.176288
    22  C    0.033777
    23  C    0.023691
    24  O   -0.254536
    25  C   -0.014021
    26  N   -0.460293
    27  C    0.129700
    28  C   -0.131645
    29  C   -0.025265
    30  C    0.035798
    31  C    0.010365
    32  C   -0.054725
    33  C   -0.067859
    34  N   -0.450419
    35  C    0.146323
    36  C   -0.185864
    37  C   -0.067865
    38  C    0.150643
    39  C    0.099587
    40  C    0.136057
    41  O   -0.180781
    42  C   -0.111603
    43  C    0.265156
    44  O   -0.253623
    45  O   -0.376453
    46  C    0.131139
    47  C    0.257193
    48  C   -0.167961
    49  C   -0.147775
    50  C    0.005260
    51  C    0.045014
    52  C   -0.026953
    53  C   -0.040823
    54  C   -0.186330
    55  C   -0.002519
    56  C    0.022398
    57  C   -0.062804
    58  C   -0.014275
    59  C   -0.203601
    60  C   -0.010318
    61  C    0.013441
    62  C    0.009515
    63  C    0.009654
    64  C   -0.236735
    65  C   -0.008097
    66  C   -0.016834
    67  H   -0.021005
    68  H    0.030056
    69  H   -0.001762
    70  H    0.024942
    71  H    0.043673
    72  H    0.059732
    73  H    0.025335
    74  H    0.048669
    75  H    0.038512
    76  H    0.042636
    77  H    0.075661
    78  H    0.049864
    79  H    0.065482
    80  H    0.044296
    81  H    0.046372
    82  H    0.047631
    83  H    0.053525
    84  H    0.068591
    85  H    0.051322
    86  H    0.040402
    87  H    0.041103
    88  H    0.051887
    89  H    0.041782
    90  H    0.031527
    91  H    0.039368
    92  H    0.041700
    93  H    0.032429
    94  H    0.044207
    95  H    0.062390
    96  H    0.033347
    97  H    0.050038
    98  H    0.070301
    99  H    0.057976
   100  H    0.056433
   101  H    0.067882
   102  H    0.045437
   103  H    0.060299
   104  H    0.035645
   105  H    0.030355
   106  H    0.039523
   107  H    0.055803
   108  H    0.031172
   109  H    0.016797
   110  H    0.022989
   111  H    0.018214
   112  H    0.023573
   113  H    0.017031
   114  H    0.022296
   115  H    0.034995
   116  H    0.023334
   117  H    0.033138
   118  H    0.018295
   119  H    0.019926
   120  H    0.022453
   121  H    0.020957
   122  H    0.015920
   123  H    0.022158
   124  H    0.019503
   125  H    0.034506
   126  H    0.038443
   127  H    0.022796
   128  H    0.021702
   129  H    0.016560
   130  H    0.012811
   131  H    0.022970
   132  H    0.019303
   133  H    0.012560
   134  H    0.026660
   135  H    0.038901
   136  H    0.034796
   137  H    0.030662
   138  H    0.042072
   139  H    0.020151
   140  H    0.012806
 Sum of Mulliken charges =  -0.00000

 Dipole moment (field-independent basis, Debye):
    X=              5.5036    Y=              3.4962    Z=             -2.7362  Tot=              7.0711
 Quadrupole moment (field-independent basis, Debye-Ang):
   XX=           -357.3573   YY=           -426.6290   ZZ=           -416.4911
   XY=             -5.7802   XZ=             10.0273   YZ=              7.4540

 Normal termination of Gaussian 16 at Wed May  4 05:44:21 2022.
