 Gaussian 16, Revision A.03,
 Gaussian 16:  ES64L-G16RevA.03 25-Dec-2016

 --------------------
 #p ZINDO=(nstates=5)
 --------------------

 ------------------------------
 step_1401_chromophore_12 ZINDO
 ------------------------------
 Symbolic Z-matrix:
 Charge =  0 Multiplicity = 1

                         Standard orientation:
 ---------------------------------------------------------------------
 Center     Atomic      Atomic             Coordinates (Angstroms)
 Number     Number       Type             X           Y           Z
 ---------------------------------------------------------------------
      1         12           0       -4.218405    0.240191   -0.270668
      2          6           0       -2.668417   -2.766722    0.704646
      3          6           0       -0.967380    1.618989   -0.580454
      4          6           0       -5.535911    3.185372   -1.064470
      5          6           0       -7.336671   -1.149448    0.419302
      6          7           0       -2.056404   -0.451645    0.014372
      7          6           0       -1.711087   -1.798290    0.368841
      8          6           0       -0.146603   -1.914889    0.207405
      9          6           0        0.374053   -0.454715    0.133572
     10          6           0       -0.924017    0.291207   -0.154529
     11          6           0        1.031754    0.106099    1.457656
     12          6           0        0.222985   -2.853100   -1.075395
     13          6           0        1.390369   -3.795298   -0.877733
     14          6           0        2.256224   -4.056544   -2.118290
     15          8           0        1.935003   -3.795728   -3.263580
     16          8           0        3.479567   -4.617378   -1.722168
     17          7           0       -3.380717    2.218011   -0.689961
     18          6           0       -2.006792    2.518908   -0.812709
     19          6           0       -1.851760    3.950656   -1.264469
     20          6           0       -3.253147    4.375701   -1.465709
     21          6           0       -4.130861    3.301990   -0.970544
     22          6           0       -0.532475    4.539459   -1.505184
     23          6           0       -3.681309    5.654926   -2.038208
     24          8           0       -4.878785    5.974221   -2.122837
     25          6           0       -2.636733    6.602153   -2.585802
     26          7           0       -6.041624    0.975742   -0.137090
     27          6           0       -6.403977    2.201153   -0.631338
     28          6           0       -7.933855    2.283867   -0.992716
     29          6           0       -8.501862    0.895512   -0.543349
     30          6           0       -7.220069    0.166751   -0.107459
     31          6           0       -8.667920    3.539318   -0.314472
     32          6           0       -9.154294    0.070253   -1.657945
     33          6           0      -10.095579    0.920789   -2.644441
     34          7           0       -4.934915   -1.521542    0.549177
     35          6           0       -6.214413   -1.988280    0.755457
     36          6           0       -6.186963   -3.292929    1.320384
     37          6           0       -4.847477   -3.614752    1.319946
     38          6           0       -4.077149   -2.551340    0.779195
     39          6           0       -7.382748   -4.072709    1.820974
     40          6           0       -3.971725   -4.741584    1.615069
     41          8           0       -4.182983   -5.860673    2.000445
     42          6           0       -2.464522   -4.232622    1.184921
     43          6           0       -1.527181   -4.385146    2.341788
     44          8           0       -1.643113   -3.850610    3.445855
     45          8           0       -0.550291   -5.278724    1.962560
     46          6           0        0.591820   -5.434237    2.864904
     47          6           0        4.624272   -4.329036   -2.639228
     48          6           0        5.816161   -4.051462   -1.770750
     49          6           0        6.960222   -3.386891   -2.095824
     50          6           0        7.328411   -2.853844   -3.513189
     51          6           0        8.080355   -3.269176   -1.072081
     52          6           0        8.468723   -1.825272   -0.636079
     53          6           0        9.743135   -1.287050   -1.342203
     54          6           0        9.863475    0.281243   -1.400090
     55          6           0       11.118821    0.555088   -2.384451
     56          6           0       10.150125    0.941629   -0.000582
     57          6           0        9.406470    2.309485    0.100737
     58          6           0        8.510046    2.409138    1.445074
     59          6           0        7.379136    3.464455    1.265711
     60          6           0        8.011754    4.866870    1.425276
     61          6           0        6.269083    3.255100    2.300598
     62          6           0        5.076170    4.191447    1.997637
     63          6           0        3.749483    3.634303    2.537144
     64          6           0        2.938336    4.700499    3.386417
     65          6           0        3.362260    4.511978    4.845717
     66          6           0        1.396222    4.434681    3.283178
     67          1           0        0.012842    2.100542   -0.591817
     68          1           0       -6.011610    4.083752   -1.463823
     69          1           0       -8.393830   -1.415100    0.348194
     70          1           0        0.314797   -2.375428    1.081289
     71          1           0        1.095765   -0.352749   -0.676941
     72          1           0        0.463293    0.947456    1.851980
     73          1           0        1.980054    0.621575    1.305736
     74          1           0        1.325935   -0.668790    2.166283
     75          1           0        0.369363   -2.138983   -1.885852
     76          1           0       -0.682980   -3.382168   -1.367079
     77          1           0        1.075317   -4.800410   -0.598437
     78          1           0        2.061745   -3.509775   -0.069094
     79          1           0       -0.104388    4.386336   -2.495870
     80          1           0        0.188743    4.079780   -0.829601
     81          1           0       -0.433625    5.614085   -1.352742
     82          1           0       -3.095427    7.340402   -3.243058
     83          1           0       -1.937170    6.015728   -3.181900
     84          1           0       -2.219948    7.204667   -1.778021
     85          1           0       -7.986352    2.352271   -2.079207
     86          1           0       -9.202381    1.130041    0.257172
     87          1           0       -9.581548    3.736474   -0.874847
     88          1           0       -8.063791    4.445107   -0.369795
     89          1           0       -8.833497    3.317423    0.739707
     90          1           0       -9.797809   -0.694419   -1.222680
     91          1           0       -8.539275   -0.569631   -2.290120
     92          1           0      -10.137856    1.991605   -2.448645
     93          1           0      -11.103052    0.537992   -2.481161
     94          1           0       -9.848111    0.718204   -3.686119
     95          1           0       -7.177411   -5.130317    1.990411
     96          1           0       -8.222067   -3.892747    1.150243
     97          1           0       -7.655018   -3.599570    2.764399
     98          1           0       -2.211119   -4.983489    0.435949
     99          1           0        0.882460   -4.536703    3.410804
    100          1           0        1.431573   -5.736132    2.238208
    101          1           0        0.223813   -6.204853    3.542775
    102          1           0        4.438576   -3.437750   -3.238535
    103          1           0        4.814693   -5.073540   -3.412771
    104          1           0        5.693562   -4.525414   -0.796536
    105          1           0        6.779186   -3.260225   -4.363520
    106          1           0        8.322927   -3.187201   -3.807405
    107          1           0        7.285937   -1.766526   -3.572841
    108          1           0        8.970678   -3.761162   -1.463284
    109          1           0        7.831343   -3.814627   -0.161935
    110          1           0        8.693917   -1.805823    0.430318
    111          1           0        7.694403   -1.067210   -0.757911
    112          1           0        9.881045   -1.745591   -2.320417
    113          1           0       10.588211   -1.566361   -0.713264
    114          1           0        8.875447    0.562496   -1.762873
    115          1           0       11.717608   -0.355955   -2.400259
    116          1           0       11.677800    1.408215   -2.001028
    117          1           0       10.923050    0.840243   -3.417871
    118          1           0       11.209689    1.178056    0.095946
    119          1           0        9.909890    0.338910    0.875899
    120          1           0        8.819504    2.556436   -0.784206
    121          1           0       10.199244    3.055617    0.155939
    122          1           0        9.250392    2.843382    2.115687
    123          1           0        8.219900    1.423849    1.810345
    124          1           0        7.113891    3.304337    0.220413
    125          1           0        9.097710    4.891446    1.332704
    126          1           0        7.696662    5.456689    2.285532
    127          1           0        7.588428    5.345012    0.541828
    128          1           0        6.756599    3.412498    3.262653
    129          1           0        5.988744    2.202593    2.278366
    130          1           0        4.998278    4.312937    0.917382
    131          1           0        5.210531    5.213816    2.350024
    132          1           0        3.942511    2.788226    3.197413
    133          1           0        3.104590    3.299458    1.724645
    134          1           0        3.035270    5.736105    3.061119
    135          1           0        3.132502    5.440433    5.368563
    136          1           0        4.386504    4.178872    5.009732
    137          1           0        2.689919    3.688470    5.086045
    138          1           0        0.864258    4.662922    4.206241
    139          1           0        1.170188    3.485749    2.795839
    140          1           0        0.958449    5.071207    2.514859
 ---------------------------------------------------------------------

 SCF Done:  E(RZINDO/S) =  -473.754183738     A.U. after   19 cycles

 Excitation energies and oscillator strengths:

 Excited State   1:      Singlet-A      1.2313 eV 1006.95 nm  f=0.5867  <S**2>=0.000
     175 ->178        -0.16761
     176 ->177         0.66989
 This state for optimization and/or second-order correction.
 Total Energy, E(CIS/TDA) =  -473.708934677
 Copying the excited state density for this state as the 1-particle RhoCI density.

 Excited State   2:      Singlet-A      1.9262 eV  643.67 nm  f=0.0485  <S**2>=0.000
     175 ->177         0.55054
     176 ->178         0.41239

 Excited State   3:      Singlet-A      2.8414 eV  436.36 nm  f=0.0147  <S**2>=0.000
     168 ->177         0.32199
     168 ->179        -0.42210
     168 ->180         0.13152
     168 ->186        -0.20160
     168 ->187         0.12185
     169 ->179        -0.10206
     171 ->177        -0.18987

 Excited State   4:      Singlet-A      2.9832 eV  415.61 nm  f=0.8348  <S**2>=0.000
     168 ->179        -0.10869
     171 ->177         0.19999
     175 ->177        -0.33228
     176 ->178         0.48523
     176 ->179         0.13885
     176 ->180         0.14708

 Excited State   5:      Singlet-A      3.0672 eV  404.22 nm  f=0.0087  <S**2>=0.000
     168 ->179         0.10486
     171 ->177        -0.25665
     173 ->177         0.11915
     174 ->177         0.15156
     176 ->179         0.55182
     176 ->180         0.15828

 The electronic state is 1-A.
 Alpha  occ. eigenvalues --   -1.82434  -1.78644  -1.77139  -1.71180  -1.70792
 Alpha  occ. eigenvalues --   -1.68467  -1.64834  -1.60435  -1.58289  -1.57388
 Alpha  occ. eigenvalues --   -1.56010  -1.51426  -1.47903  -1.47359  -1.46855
 Alpha  occ. eigenvalues --   -1.43376  -1.42225  -1.40759  -1.38783  -1.37701
 Alpha  occ. eigenvalues --   -1.34818  -1.32810  -1.32472  -1.31517  -1.27099
 Alpha  occ. eigenvalues --   -1.26606  -1.24455  -1.22284  -1.20531  -1.18438
 Alpha  occ. eigenvalues --   -1.17126  -1.15869  -1.14935  -1.14292  -1.13427
 Alpha  occ. eigenvalues --   -1.13379  -1.11736  -1.10647  -1.04573  -1.03222
 Alpha  occ. eigenvalues --   -1.02457  -1.00980  -0.98722  -0.98175  -0.96721
 Alpha  occ. eigenvalues --   -0.95750  -0.94093  -0.93623  -0.91594  -0.91141
 Alpha  occ. eigenvalues --   -0.91019  -0.90199  -0.88035  -0.87769  -0.87628
 Alpha  occ. eigenvalues --   -0.86367  -0.86060  -0.83165  -0.82791  -0.80564
 Alpha  occ. eigenvalues --   -0.80178  -0.79347  -0.77394  -0.77302  -0.76536
 Alpha  occ. eigenvalues --   -0.75893  -0.74711  -0.74317  -0.73534  -0.73401
 Alpha  occ. eigenvalues --   -0.73066  -0.72742  -0.71817  -0.71698  -0.71261
 Alpha  occ. eigenvalues --   -0.70208  -0.69562  -0.68912  -0.68226  -0.67822
 Alpha  occ. eigenvalues --   -0.67346  -0.66953  -0.66746  -0.66095  -0.65322
 Alpha  occ. eigenvalues --   -0.65170  -0.65116  -0.64777  -0.64062  -0.63557
 Alpha  occ. eigenvalues --   -0.63036  -0.62832  -0.62679  -0.61952  -0.61752
 Alpha  occ. eigenvalues --   -0.61587  -0.61217  -0.60566  -0.60049  -0.59829
 Alpha  occ. eigenvalues --   -0.59258  -0.59110  -0.58702  -0.58281  -0.58046
 Alpha  occ. eigenvalues --   -0.57590  -0.57340  -0.57241  -0.56986  -0.56695
 Alpha  occ. eigenvalues --   -0.56105  -0.55749  -0.55419  -0.55272  -0.54804
 Alpha  occ. eigenvalues --   -0.54640  -0.53970  -0.53728  -0.53589  -0.52903
 Alpha  occ. eigenvalues --   -0.52570  -0.52428  -0.52295  -0.52034  -0.51878
 Alpha  occ. eigenvalues --   -0.51643  -0.51547  -0.51033  -0.50602  -0.50488
 Alpha  occ. eigenvalues --   -0.50278  -0.50183  -0.50007  -0.49957  -0.49766
 Alpha  occ. eigenvalues --   -0.49561  -0.49173  -0.48615  -0.48402  -0.47999
 Alpha  occ. eigenvalues --   -0.47677  -0.47617  -0.47182  -0.47071  -0.46941
 Alpha  occ. eigenvalues --   -0.46719  -0.46382  -0.46246  -0.45757  -0.45687
 Alpha  occ. eigenvalues --   -0.45431  -0.45389  -0.44810  -0.44670  -0.44498
 Alpha  occ. eigenvalues --   -0.44425  -0.44185  -0.43550  -0.43419  -0.42738
 Alpha  occ. eigenvalues --   -0.42258  -0.42254  -0.41634  -0.39563  -0.39159
 Alpha  occ. eigenvalues --   -0.38352  -0.37258  -0.35669  -0.34635  -0.34017
 Alpha  occ. eigenvalues --   -0.33308  -0.32915  -0.32553  -0.32119  -0.27084
 Alpha  occ. eigenvalues --   -0.21880
 Alpha virt. eigenvalues --   -0.08875  -0.02021  -0.00879   0.01325   0.01553
 Alpha virt. eigenvalues --    0.02315   0.02349   0.02827   0.03925   0.05040
 Alpha virt. eigenvalues --    0.06100   0.06473   0.06672   0.07206   0.08045

 Mulliken charges:
               1
     1  Mg   0.434437
     2  C   -0.013700
     3  C   -0.071580
     4  C   -0.072296
     5  C   -0.077151
     6  N   -0.291382
     7  C    0.079032
     8  C   -0.001659
     9  C    0.011922
    10  C    0.173525
    11  C   -0.056038
    12  C   -0.023959
    13  C    0.013930
    14  C    0.465646
    15  O   -0.508573
    16  O   -0.285312
    17  N   -0.338773
    18  C    0.117654
    19  C    0.032099
    20  C   -0.041029
    21  C    0.170359
    22  C   -0.028222
    23  C    0.326560
    24  O   -0.534341
    25  C   -0.032302
    26  N   -0.276723
    27  C    0.164938
    28  C   -0.006667
    29  C    0.009060
    30  C    0.083988
    31  C   -0.054196
    32  C   -0.031640
    33  C   -0.070959
    34  N   -0.312417
    35  C    0.083948
    36  C    0.017361
    37  C   -0.049379
    38  C    0.089453
    39  C   -0.037772
    40  C    0.324238
    41  O   -0.509153
    42  C    0.042328
    43  C    0.488136
    44  O   -0.520085
    45  O   -0.276393
    46  C    0.073008
    47  C    0.104681
    48  C   -0.079049
    49  C   -0.012420
    50  C   -0.045981
    51  C   -0.015694
    52  C   -0.035306
    53  C   -0.044383
    54  C   -0.019389
    55  C   -0.063914
    56  C   -0.035324
    57  C   -0.051096
    58  C   -0.052459
    59  C   -0.014466
    60  C   -0.060597
    61  C   -0.026402
    62  C   -0.033105
    63  C   -0.034962
    64  C   -0.019205
    65  C   -0.059751
    66  C   -0.067382
    67  H    0.015701
    68  H    0.040147
    69  H    0.037049
    70  H    0.026781
    71  H    0.033886
    72  H    0.031722
    73  H    0.010589
    74  H    0.032357
    75  H    0.030832
    76  H    0.030452
    77  H    0.048738
    78  H    0.038437
    79  H    0.039524
    80  H    0.025109
    81  H    0.026836
    82  H    0.032692
    83  H    0.033056
    84  H    0.045399
    85  H    0.038048
    86  H    0.040809
    87  H    0.023274
    88  H    0.026933
    89  H    0.026701
    90  H    0.012873
    91  H    0.030086
    92  H    0.027248
    93  H    0.012330
    94  H    0.021906
    95  H    0.039041
    96  H    0.023933
    97  H    0.029668
    98  H    0.054568
    99  H    0.046734
   100  H    0.030691
   101  H    0.049883
   102  H    0.044146
   103  H    0.056544
   104  H    0.034730
   105  H    0.020316
   106  H    0.022527
   107  H    0.031651
   108  H    0.025697
   109  H    0.015261
   110  H    0.015175
   111  H    0.020830
   112  H    0.022671
   113  H    0.012311
   114  H    0.029673
   115  H    0.024610
   116  H    0.016894
   117  H    0.019739
   118  H    0.018344
   119  H    0.023874
   120  H    0.023520
   121  H    0.014771
   122  H    0.014911
   123  H    0.026176
   124  H    0.026219
   125  H    0.024042
   126  H    0.024869
   127  H    0.008035
   128  H    0.024165
   129  H    0.015487
   130  H    0.014729
   131  H    0.023929
   132  H    0.022856
   133  H    0.013759
   134  H    0.024720
   135  H    0.019246
   136  H    0.021317
   137  H    0.023166
   138  H    0.028295
   139  H    0.022136
   140  H    0.000906
 Sum of Mulliken charges =  -0.00000

 Dipole moment (field-independent basis, Debye):
    X=              8.7074    Y=              5.7510    Z=             -4.1495  Tot=             11.2299
 N-N= 4.502736369644D+03 E-N= 0.000000000000D+00  KE=-9.678809136262D+03
 Leave Link  601 at Wed May  4 05:57:48 2022, MaxMem=  6710886400 cpu:               0.8 elap:               0.0
 (Enter /sw/apps/gaussian-16.0/g16/l9999.exe)
 1\1\GINC-BP1-COMPUTE050\SP\RZINDO CIS\STO-3G\C55H74Mg1N4O6\OF15641\04-
 May-2022\0\\#p ZINDO=(nstates=5)\\step_1401_chromophore_12 ZINDO\\0,1\
 Mg,0,48.061,15.063,27.781\C,0,46.083,15.184,30.691\C,0,50.273,17.315,2
 9.394\C,0,49.955,15.167,25.053\C,0,45.62,13.14,26.208\N,0,48.202,16.14
 1,29.794\C,0,47.251,15.944,30.85\C,0,47.848,16.653,32.126\C,0,48.976,1
 7.579,31.598\C,0,49.176,17.007,30.199\C,0,48.613,19.115,31.502\C,0,48.
 315,15.542,33.226\C,0,48.013,15.887,34.668\C,0,49.039,15.4,35.701\O,0,

 Normal termination of Gaussian 16 at Wed May  4 05:57:48 2022.
