 Gaussian 16, Revision A.03,
 Gaussian 16:  ES64L-G16RevA.03 25-Dec-2016

 ------------------------------
 #p blyp/Def2SVP td=(nstates=5)
 ------------------------------

 ---------------------------------------------------
 step_1351_chromophore_14 TDDFT with blyp functional
 ---------------------------------------------------
 Symbolic Z-matrix:
 Charge =  0 Multiplicity = 1

                         Standard orientation:
 ---------------------------------------------------------------------
 Center     Atomic      Atomic             Coordinates (Angstroms)
 Number     Number       Type             X           Y           Z
 ---------------------------------------------------------------------
      1         12           0        5.199675    1.125251   -0.071047
      2          6           0        5.095697   -2.283834    0.415824
      3          6           0        4.271922    0.459438   -3.455550
      4          6           0        4.413748    4.363111   -0.361708
      5          6           0        5.641391    1.531988    3.387749
      6          7           0        4.764869   -0.644417   -1.340102
      7          6           0        4.863213   -1.968173   -0.903826
      8          6           0        4.507997   -2.977017   -1.976721
      9          6           0        4.583844   -2.041482   -3.335216
     10          6           0        4.472380   -0.661554   -2.653457
     11          6           0        5.878972   -2.233871   -4.206420
     12          6           0        3.110267   -3.696936   -1.802632
     13          6           0        2.044654   -2.686727   -1.295850
     14          6           0        0.679390   -3.300696   -0.897598
     15          8           0        0.502190   -4.495702   -0.599568
     16          8           0       -0.324302   -2.328159   -0.797893
     17          7           0        4.467391    2.347053   -1.691621
     18          6           0        4.105711    1.855055   -2.944201
     19          6           0        3.679015    2.977734   -3.733605
     20          6           0        3.591874    4.142908   -2.915886
     21          6           0        4.174270    3.651761   -1.577816
     22          6           0        3.303223    2.843782   -5.228001
     23          6           0        2.988481    5.443424   -3.283644
     24          8           0        2.372429    5.579841   -4.299391
     25          6           0        2.903657    6.581469   -2.299658
     26          7           0        5.090362    2.712289    1.279743
     27          6           0        4.903820    3.974313    0.897396
     28          6           0        5.171547    4.965940    2.038360
     29          6           0        5.074896    4.075816    3.280116
     30          6           0        5.258183    2.650489    2.635201
     31          6           0        6.397543    5.966783    1.870676
     32          6           0        3.863216    4.142931    4.266406
     33          6           0        4.232341    4.646690    5.704855
     34          7           0        5.523829   -0.131184    1.598201
     35          6           0        5.703609    0.179146    2.892358
     36          6           0        5.895098   -0.999808    3.615845
     37          6           0        5.530083   -1.984058    2.680373
     38          6           0        5.343675   -1.429121    1.477557
     39          6           0        6.073539   -1.105590    5.137663
     40          6           0        5.317776   -3.463909    2.529508
     41          8           0        5.308053   -4.397370    3.373271
     42          6           0        5.103356   -3.628428    1.064757
     43          6           0        6.133364   -4.636053    0.613792
     44          8           0        5.989884   -5.826254    0.505392
     45          8           0        7.392613   -3.990929    0.380628
     46          6           0        8.410115   -4.877269   -0.231732
     47          6           0       -1.545678   -2.828452   -0.122925
     48          6           0       -2.534696   -1.679072   -0.359754
     49          6           0       -3.280587   -1.413408   -1.424248
     50          6           0       -3.324563   -2.251066   -2.642625
     51          6           0       -4.010640   -0.036850   -1.563443
     52          6           0       -5.344686    0.273173   -0.930493
     53          6           0       -6.270681   -1.063181   -0.898994
     54          6           0       -7.630238   -1.012139   -0.125052
     55          6           0       -7.548352   -1.546345    1.327577
     56          6           0       -8.943069   -1.710011   -0.757453
     57          6           0      -10.171150   -0.857328   -0.513936
     58          6           0      -11.393997   -1.602558    0.057022
     59          6           0      -12.176483   -0.775819    1.085183
     60          6           0      -11.457112   -0.876460    2.431497
     61          6           0      -13.673313   -1.147247    0.907948
     62          6           0      -14.627380   -0.051778    1.421061
     63          6           0      -15.532916    0.593533    0.281839
     64          6           0      -15.663023    2.082036    0.457584
     65          6           0      -16.501253    2.371930    1.735260
     66          6           0      -16.433784    2.729338   -0.795589
     67          1           0        3.973540    0.163936   -4.463277
     68          1           0        4.209079    5.433987   -0.422570
     69          1           0        5.925062    1.675668    4.432658
     70          1           0        5.290396   -3.730477   -1.885631
     71          1           0        3.783863   -2.221237   -4.052813
     72          1           0        6.504504   -1.356352   -4.042364
     73          1           0        5.533245   -2.349107   -5.233163
     74          1           0        6.420323   -3.163961   -4.030415
     75          1           0        3.217495   -4.671228   -1.325663
     76          1           0        2.762252   -3.819350   -2.828873
     77          1           0        1.776031   -2.025238   -2.119583
     78          1           0        2.341073   -2.169554   -0.382694
     79          1           0        2.238674    3.037452   -5.363501
     80          1           0        3.548075    1.856836   -5.617969
     81          1           0        3.880676    3.483830   -5.896059
     82          1           0        3.932313    6.912091   -2.152721
     83          1           0        2.344085    6.392352   -1.384408
     84          1           0        2.341935    7.376177   -2.790449
     85          1           0        4.301820    5.617256    2.126399
     86          1           0        5.962464    4.250888    3.887973
     87          1           0        6.976842    5.677321    0.993889
     88          1           0        7.043147    5.825175    2.737986
     89          1           0        6.113818    7.019762    1.872741
     90          1           0        3.450992    3.154298    4.465643
     91          1           0        3.110803    4.789958    3.814813
     92          1           0        5.259818    5.004652    5.643996
     93          1           0        4.076705    3.774921    6.339513
     94          1           0        3.579433    5.456947    6.029386
     95          1           0        5.716434   -2.100094    5.404526
     96          1           0        5.353956   -0.453799    5.633439
     97          1           0        7.080605   -1.048537    5.549466
     98          1           0        4.135123   -4.115340    0.952777
     99          1           0        8.980349   -4.240943   -0.908218
    100          1           0        7.994923   -5.599137   -0.935887
    101          1           0        9.107524   -5.322952    0.476814
    102          1           0       -1.478010   -3.075822    0.936110
    103          1           0       -1.849042   -3.709367   -0.688993
    104          1           0       -2.511022   -0.866439    0.365225
    105          1           0       -2.650975   -1.790259   -3.365236
    106          1           0       -4.296313   -2.380914   -3.119327
    107          1           0       -2.869768   -3.226751   -2.473197
    108          1           0       -4.154355    0.193180   -2.619449
    109          1           0       -3.226385    0.692416   -1.363190
    110          1           0       -5.865468    1.083801   -1.439297
    111          1           0       -5.149015    0.632060    0.078956
    112          1           0       -5.715395   -1.837579   -0.368351
    113          1           0       -6.353510   -1.458691   -1.911678
    114          1           0       -7.795108    0.063429   -0.073046
    115          1           0       -6.646889   -2.116619    1.552336
    116          1           0       -8.360397   -2.233410    1.565458
    117          1           0       -7.727323   -0.671309    1.951413
    118          1           0       -9.035848   -2.749831   -0.445558
    119          1           0       -8.729457   -1.852907   -1.817053
    120          1           0      -10.455918   -0.382083   -1.452304
    121          1           0       -9.911716    0.007642    0.095973
    122          1           0      -11.138263   -2.595480    0.424864
    123          1           0      -12.032269   -1.684723   -0.822736
    124          1           0      -12.123119    0.289649    0.864539
    125          1           0      -10.375830   -0.927408    2.303691
    126          1           0      -11.828518   -1.676391    3.071758
    127          1           0      -11.717696    0.012213    3.007800
    128          1           0      -13.778619   -2.039944    1.524638
    129          1           0      -14.022029   -1.454138   -0.077737
    130          1           0      -14.142784    0.720375    2.019233
    131          1           0      -15.321022   -0.592504    2.065155
    132          1           0      -16.551307    0.205581    0.311973
    133          1           0      -15.075706    0.311216   -0.666763
    134          1           0      -14.668954    2.522746    0.524887
    135          1           0      -17.432594    2.916552    1.583138
    136          1           0      -15.923611    3.006277    2.406795
    137          1           0      -16.713992    1.457148    2.287612
    138          1           0      -15.712494    3.287455   -1.391786
    139          1           0      -17.093370    3.527140   -0.454497
    140          1           0      -17.031092    1.997596   -1.339863
 ---------------------------------------------------------------------

 SCF Done:  E(RB-LYP) =  -3007.36477532     A.U. after   20 cycles

 Excitation energies and oscillator strengths:

 Excited State   1:      Singlet-A      1.6857 eV  735.50 nm  f=0.0046  <S**2>=0.000
     244 -> 247        0.70196
 This state for optimization and/or second-order correction.
 Total Energy, E(TD-HF/TD-DFT) =  -3007.30282663
 Copying the excited state density for this state as the 1-particle RhoCI density.

 Excited State   2:      Singlet-A      1.7531 eV  707.22 nm  f=0.0032  <S**2>=0.000
     243 -> 247        0.68703
     245 -> 247        0.15881

 Excited State   3:      Singlet-A      1.8381 eV  674.52 nm  f=0.3085  <S**2>=0.000
     245 -> 248       -0.18350
     246 -> 247        0.68657
     246 <- 247       -0.15066

 Excited State   4:      Singlet-A      2.0176 eV  614.53 nm  f=0.0992  <S**2>=0.000
     241 -> 247        0.11158
     243 -> 247       -0.15922
     245 -> 247        0.63377
     246 -> 248        0.20804

 Excited State   5:      Singlet-A      2.1573 eV  574.73 nm  f=0.0004  <S**2>=0.000
     242 -> 247        0.70689

 The electronic state is 1-A.
 Alpha  occ. eigenvalues --  -46.28194 -18.81923 -18.81579 -18.77476 -18.76958
 Alpha  occ. eigenvalues --  -18.75869 -18.75240 -14.04117 -14.03886 -14.02035
 Alpha  occ. eigenvalues --  -14.00378 -10.04278 -10.04183  -9.99852  -9.99355
 Alpha  occ. eigenvalues --   -9.97791  -9.97486  -9.97361  -9.97130  -9.97113
 Alpha  occ. eigenvalues --   -9.96923  -9.96891  -9.96801  -9.95278  -9.95092
 Alpha  occ. eigenvalues --   -9.94978  -9.94625  -9.94345  -9.94246  -9.94233
 Alpha  occ. eigenvalues --   -9.94089  -9.93949  -9.93842  -9.93669  -9.93612
 Alpha  occ. eigenvalues --   -9.93563  -9.93552  -9.93449  -9.93310  -9.93266
 Alpha  occ. eigenvalues --   -9.93072  -9.92972  -9.92889  -9.92525  -9.92301
 Alpha  occ. eigenvalues --   -9.92267  -9.92066  -9.91968  -9.91846  -9.91783
 Alpha  occ. eigenvalues --   -9.91694  -9.91650  -9.91363  -9.91300  -9.91149
 Alpha  occ. eigenvalues --   -9.90849  -9.90826  -9.90819  -9.90801  -9.90762
 Alpha  occ. eigenvalues --   -9.90683  -9.90654  -9.90579  -9.90439  -9.90431
 Alpha  occ. eigenvalues --   -9.90265  -2.92722  -1.73158  -1.72599  -1.72429
 Alpha  occ. eigenvalues --   -0.96788  -0.96418  -0.92986  -0.89812  -0.89565
 Alpha  occ. eigenvalues --   -0.88799  -0.88368  -0.87289  -0.86367  -0.85314
 Alpha  occ. eigenvalues --   -0.77379  -0.73248  -0.72855  -0.72677  -0.72543
 Alpha  occ. eigenvalues --   -0.71950  -0.71441  -0.71199  -0.70357  -0.69959
 Alpha  occ. eigenvalues --   -0.69280  -0.68844  -0.67926  -0.67839  -0.67337
 Alpha  occ. eigenvalues --   -0.66169  -0.65939  -0.65023  -0.64775  -0.64548
 Alpha  occ. eigenvalues --   -0.63940  -0.62578  -0.62380  -0.61674  -0.61384
 Alpha  occ. eigenvalues --   -0.60429  -0.59988  -0.59615  -0.59427  -0.58903
 Alpha  occ. eigenvalues --   -0.58486  -0.57958  -0.57244  -0.56186  -0.55031
 Alpha  occ. eigenvalues --   -0.54125  -0.53749  -0.53351  -0.52302  -0.52011
 Alpha  occ. eigenvalues --   -0.51850  -0.51367  -0.50522  -0.50354  -0.49538
 Alpha  occ. eigenvalues --   -0.49217  -0.48938  -0.48851  -0.48335  -0.46771
 Alpha  occ. eigenvalues --   -0.46528  -0.45933  -0.45588  -0.45254  -0.44635
 Alpha  occ. eigenvalues --   -0.43779  -0.43645  -0.43467  -0.43019  -0.42468
 Alpha  occ. eigenvalues --   -0.42334  -0.41819  -0.41581  -0.41412  -0.41111
 Alpha  occ. eigenvalues --   -0.40871  -0.40758  -0.40660  -0.40512  -0.40031
 Alpha  occ. eigenvalues --   -0.39941  -0.39685  -0.39258  -0.39175  -0.39103
 Alpha  occ. eigenvalues --   -0.38877  -0.38708  -0.38564  -0.38412  -0.38135
 Alpha  occ. eigenvalues --   -0.38036  -0.37693  -0.37504  -0.37398  -0.37179
 Alpha  occ. eigenvalues --   -0.36931  -0.36808  -0.36502  -0.36426  -0.36263
 Alpha  occ. eigenvalues --   -0.36167  -0.36130  -0.35844  -0.35824  -0.35736
 Alpha  occ. eigenvalues --   -0.35496  -0.35398  -0.35081  -0.34907  -0.34640
 Alpha  occ. eigenvalues --   -0.34465  -0.34311  -0.34274  -0.34131  -0.33999
 Alpha  occ. eigenvalues --   -0.33832  -0.33654  -0.33418  -0.33247  -0.32939
 Alpha  occ. eigenvalues --   -0.32895  -0.32837  -0.32706  -0.32624  -0.32234
 Alpha  occ. eigenvalues --   -0.32186  -0.32011  -0.31946  -0.31873  -0.31594
 Alpha  occ. eigenvalues --   -0.31435  -0.31357  -0.31143  -0.30907  -0.30701
 Alpha  occ. eigenvalues --   -0.30569  -0.30441  -0.30393  -0.30113  -0.29987
 Alpha  occ. eigenvalues --   -0.29897  -0.29729  -0.29589  -0.29300  -0.29173
 Alpha  occ. eigenvalues --   -0.29063  -0.28954  -0.28413  -0.28255  -0.27757
 Alpha  occ. eigenvalues --   -0.27249  -0.27114  -0.27079  -0.26827  -0.26512
 Alpha  occ. eigenvalues --   -0.26443  -0.26180  -0.25921  -0.25542  -0.24986
 Alpha  occ. eigenvalues --   -0.24970  -0.24849  -0.24310  -0.23896  -0.23585
 Alpha  occ. eigenvalues --   -0.23056  -0.22924  -0.22297  -0.22127  -0.20859
 Alpha  occ. eigenvalues --   -0.20560  -0.20340  -0.18789  -0.18531  -0.17875
 Alpha  occ. eigenvalues --   -0.16738
 Alpha virt. eigenvalues --   -0.12414  -0.07238  -0.06350  -0.04849  -0.03392
 Alpha virt. eigenvalues --   -0.03088  -0.02403  -0.02004  -0.01903  -0.00288
 Alpha virt. eigenvalues --    0.00417   0.01041   0.01887   0.02664   0.02723

 Mulliken charges:
               1
     1  Mg   0.695993
     2  C    0.086079
     3  C   -0.046353
     4  C   -0.036003
     5  C   -0.074068
     6  N   -0.206470
     7  C   -0.148779
     8  C    0.031441
     9  C   -0.029508
    10  C    0.013751
    11  C    0.125290
    12  C    0.141011
    13  C    0.080518
    14  C    0.092245
    15  O   -0.209678
    16  O   -0.290965
    17  N   -0.265930
    18  C    0.124529
    19  C   -0.138950
    20  C    0.058415
    21  C    0.092720
    22  C    0.179783
    23  C   -0.121158
    24  O   -0.138476
    25  C    0.127800
    26  N   -0.220020
    27  C    0.017851
    28  C    0.020847
    29  C   -0.009349
    30  C    0.046089
    31  C    0.142995
    32  C    0.100762
    33  C    0.051442
    34  N   -0.215693
    35  C    0.080867
    36  C   -0.195643
    37  C    0.084703
    38  C    0.062727
    39  C    0.156166
    40  C   -0.050823
    41  O   -0.152510
    42  C    0.099504
    43  C    0.103938
    44  O   -0.131263
    45  O   -0.322177
    46  C    0.217701
    47  C    0.327823
    48  C   -0.091640
    49  C   -0.135716
    50  C    0.160220
    51  C    0.115838
    52  C    0.097296
    53  C    0.065225
    54  C   -0.095471
    55  C    0.104659
    56  C    0.112510
    57  C    0.075017
    58  C    0.114081
    59  C   -0.086571
    60  C    0.119152
    61  C    0.110385
    62  C    0.071863
    63  C    0.089251
    64  C   -0.106690
    65  C    0.100481
    66  C    0.104604
    67  H   -0.046528
    68  H   -0.079986
    69  H   -0.053291
    70  H   -0.028192
    71  H   -0.023270
    72  H    0.006277
    73  H   -0.008529
    74  H   -0.002158
    75  H    0.022877
    76  H   -0.028583
    77  H    0.008913
    78  H    0.037401
    79  H    0.017201
    80  H   -0.037587
    81  H   -0.000582
    82  H    0.006287
    83  H    0.019231
    84  H   -0.018457
    85  H   -0.035367
    86  H   -0.033198
    87  H   -0.000975
    88  H   -0.016788
    89  H    0.003590
    90  H   -0.013570
    91  H   -0.019116
    92  H   -0.006915
    93  H    0.003909
    94  H   -0.002938
    95  H   -0.003707
    96  H   -0.004665
    97  H    0.005484
    98  H    0.004243
    99  H   -0.003622
   100  H    0.012844
   101  H    0.026689
   102  H    0.007501
   103  H   -0.007757
   104  H   -0.046396
   105  H   -0.003149
   106  H   -0.001387
   107  H   -0.027297
   108  H   -0.049694
   109  H   -0.025468
   110  H   -0.020344
   111  H   -0.028647
   112  H   -0.026244
   113  H   -0.035134
   114  H   -0.032209
   115  H   -0.013173
   116  H   -0.011235
   117  H   -0.006592
   118  H   -0.031831
   119  H   -0.055729
   120  H   -0.034802
   121  H   -0.029150
   122  H   -0.026488
   123  H   -0.046297
   124  H   -0.041372
   125  H   -0.010845
   126  H   -0.023121
   127  H   -0.027756
   128  H   -0.047152
   129  H   -0.031452
   130  H   -0.020985
   131  H   -0.036606
   132  H   -0.030349
   133  H   -0.031858
   134  H   -0.030411
   135  H   -0.015027
   136  H   -0.023027
   137  H   -0.014460
   138  H   -0.019020
   139  H   -0.029218
   140  H   -0.006409
 Sum of Mulliken charges =  -0.00000

 Dipole moment (field-independent basis, Debye):
    X=              1.7867    Y=              5.6837    Z=             -0.7664  Tot=              6.0070
 Quadrupole moment (field-independent basis, Debye-Ang):
   XX=           -372.2626   YY=           -438.4618   ZZ=           -404.2462
   XY=             26.5474   XZ=            -11.7785   YZ=             49.1881

 Normal termination of Gaussian 16 at Wed Apr 27 23:40:58 2022.
