 Gaussian 16, Revision A.03,
 Gaussian 16:  ES64L-G16RevA.03 25-Dec-2016

 -----------------------------------
 #p cam-b3lyp/Def2SVP td=(nstates=5)
 -----------------------------------

 --------------------------------------------------------
 step_1351_chromophore_14 TDDFT with cam-b3lyp functional
 --------------------------------------------------------
 Symbolic Z-matrix:
 Charge =  0 Multiplicity = 1

                         Standard orientation:
 ---------------------------------------------------------------------
 Center     Atomic      Atomic             Coordinates (Angstroms)
 Number     Number       Type             X           Y           Z
 ---------------------------------------------------------------------
      1         12           0        5.199675    1.125251   -0.071047
      2          6           0        5.095697   -2.283834    0.415824
      3          6           0        4.271922    0.459438   -3.455550
      4          6           0        4.413748    4.363111   -0.361708
      5          6           0        5.641391    1.531988    3.387749
      6          7           0        4.764869   -0.644417   -1.340102
      7          6           0        4.863213   -1.968173   -0.903826
      8          6           0        4.507997   -2.977017   -1.976721
      9          6           0        4.583844   -2.041482   -3.335216
     10          6           0        4.472380   -0.661554   -2.653457
     11          6           0        5.878972   -2.233871   -4.206420
     12          6           0        3.110267   -3.696936   -1.802632
     13          6           0        2.044654   -2.686727   -1.295850
     14          6           0        0.679390   -3.300696   -0.897598
     15          8           0        0.502190   -4.495702   -0.599568
     16          8           0       -0.324302   -2.328159   -0.797893
     17          7           0        4.467391    2.347053   -1.691621
     18          6           0        4.105711    1.855055   -2.944201
     19          6           0        3.679015    2.977734   -3.733605
     20          6           0        3.591874    4.142908   -2.915886
     21          6           0        4.174270    3.651761   -1.577816
     22          6           0        3.303223    2.843782   -5.228001
     23          6           0        2.988481    5.443424   -3.283644
     24          8           0        2.372429    5.579841   -4.299391
     25          6           0        2.903657    6.581469   -2.299658
     26          7           0        5.090362    2.712289    1.279743
     27          6           0        4.903820    3.974313    0.897396
     28          6           0        5.171547    4.965940    2.038360
     29          6           0        5.074896    4.075816    3.280116
     30          6           0        5.258183    2.650489    2.635201
     31          6           0        6.397543    5.966783    1.870676
     32          6           0        3.863216    4.142931    4.266406
     33          6           0        4.232341    4.646690    5.704855
     34          7           0        5.523829   -0.131184    1.598201
     35          6           0        5.703609    0.179146    2.892358
     36          6           0        5.895098   -0.999808    3.615845
     37          6           0        5.530083   -1.984058    2.680373
     38          6           0        5.343675   -1.429121    1.477557
     39          6           0        6.073539   -1.105590    5.137663
     40          6           0        5.317776   -3.463909    2.529508
     41          8           0        5.308053   -4.397370    3.373271
     42          6           0        5.103356   -3.628428    1.064757
     43          6           0        6.133364   -4.636053    0.613792
     44          8           0        5.989884   -5.826254    0.505392
     45          8           0        7.392613   -3.990929    0.380628
     46          6           0        8.410115   -4.877269   -0.231732
     47          6           0       -1.545678   -2.828452   -0.122925
     48          6           0       -2.534696   -1.679072   -0.359754
     49          6           0       -3.280587   -1.413408   -1.424248
     50          6           0       -3.324563   -2.251066   -2.642625
     51          6           0       -4.010640   -0.036850   -1.563443
     52          6           0       -5.344686    0.273173   -0.930493
     53          6           0       -6.270681   -1.063181   -0.898994
     54          6           0       -7.630238   -1.012139   -0.125052
     55          6           0       -7.548352   -1.546345    1.327577
     56          6           0       -8.943069   -1.710011   -0.757453
     57          6           0      -10.171150   -0.857328   -0.513936
     58          6           0      -11.393997   -1.602558    0.057022
     59          6           0      -12.176483   -0.775819    1.085183
     60          6           0      -11.457112   -0.876460    2.431497
     61          6           0      -13.673313   -1.147247    0.907948
     62          6           0      -14.627380   -0.051778    1.421061
     63          6           0      -15.532916    0.593533    0.281839
     64          6           0      -15.663023    2.082036    0.457584
     65          6           0      -16.501253    2.371930    1.735260
     66          6           0      -16.433784    2.729338   -0.795589
     67          1           0        3.973540    0.163936   -4.463277
     68          1           0        4.209079    5.433987   -0.422570
     69          1           0        5.925062    1.675668    4.432658
     70          1           0        5.290396   -3.730477   -1.885631
     71          1           0        3.783863   -2.221237   -4.052813
     72          1           0        6.504504   -1.356352   -4.042364
     73          1           0        5.533245   -2.349107   -5.233163
     74          1           0        6.420323   -3.163961   -4.030415
     75          1           0        3.217495   -4.671228   -1.325663
     76          1           0        2.762252   -3.819350   -2.828873
     77          1           0        1.776031   -2.025238   -2.119583
     78          1           0        2.341073   -2.169554   -0.382694
     79          1           0        2.238674    3.037452   -5.363501
     80          1           0        3.548075    1.856836   -5.617969
     81          1           0        3.880676    3.483830   -5.896059
     82          1           0        3.932313    6.912091   -2.152721
     83          1           0        2.344085    6.392352   -1.384408
     84          1           0        2.341935    7.376177   -2.790449
     85          1           0        4.301820    5.617256    2.126399
     86          1           0        5.962464    4.250888    3.887973
     87          1           0        6.976842    5.677321    0.993889
     88          1           0        7.043147    5.825175    2.737986
     89          1           0        6.113818    7.019762    1.872741
     90          1           0        3.450992    3.154298    4.465643
     91          1           0        3.110803    4.789958    3.814813
     92          1           0        5.259818    5.004652    5.643996
     93          1           0        4.076705    3.774921    6.339513
     94          1           0        3.579433    5.456947    6.029386
     95          1           0        5.716434   -2.100094    5.404526
     96          1           0        5.353956   -0.453799    5.633439
     97          1           0        7.080605   -1.048537    5.549466
     98          1           0        4.135123   -4.115340    0.952777
     99          1           0        8.980349   -4.240943   -0.908218
    100          1           0        7.994923   -5.599137   -0.935887
    101          1           0        9.107524   -5.322952    0.476814
    102          1           0       -1.478010   -3.075822    0.936110
    103          1           0       -1.849042   -3.709367   -0.688993
    104          1           0       -2.511022   -0.866439    0.365225
    105          1           0       -2.650975   -1.790259   -3.365236
    106          1           0       -4.296313   -2.380914   -3.119327
    107          1           0       -2.869768   -3.226751   -2.473197
    108          1           0       -4.154355    0.193180   -2.619449
    109          1           0       -3.226385    0.692416   -1.363190
    110          1           0       -5.865468    1.083801   -1.439297
    111          1           0       -5.149015    0.632060    0.078956
    112          1           0       -5.715395   -1.837579   -0.368351
    113          1           0       -6.353510   -1.458691   -1.911678
    114          1           0       -7.795108    0.063429   -0.073046
    115          1           0       -6.646889   -2.116619    1.552336
    116          1           0       -8.360397   -2.233410    1.565458
    117          1           0       -7.727323   -0.671309    1.951413
    118          1           0       -9.035848   -2.749831   -0.445558
    119          1           0       -8.729457   -1.852907   -1.817053
    120          1           0      -10.455918   -0.382083   -1.452304
    121          1           0       -9.911716    0.007642    0.095973
    122          1           0      -11.138263   -2.595480    0.424864
    123          1           0      -12.032269   -1.684723   -0.822736
    124          1           0      -12.123119    0.289649    0.864539
    125          1           0      -10.375830   -0.927408    2.303691
    126          1           0      -11.828518   -1.676391    3.071758
    127          1           0      -11.717696    0.012213    3.007800
    128          1           0      -13.778619   -2.039944    1.524638
    129          1           0      -14.022029   -1.454138   -0.077737
    130          1           0      -14.142784    0.720375    2.019233
    131          1           0      -15.321022   -0.592504    2.065155
    132          1           0      -16.551307    0.205581    0.311973
    133          1           0      -15.075706    0.311216   -0.666763
    134          1           0      -14.668954    2.522746    0.524887
    135          1           0      -17.432594    2.916552    1.583138
    136          1           0      -15.923611    3.006277    2.406795
    137          1           0      -16.713992    1.457148    2.287612
    138          1           0      -15.712494    3.287455   -1.391786
    139          1           0      -17.093370    3.527140   -0.454497
    140          1           0      -17.031092    1.997596   -1.339863
 ---------------------------------------------------------------------

 SCF Done:  E(RCAM-B3LYP) =  -3007.15347724     A.U. after   18 cycles

 Excitation energies and oscillator strengths:

 Excited State   1:      Singlet-A      1.7334 eV  715.25 nm  f=0.3873  <S**2>=0.000
     245 -> 248       -0.16583
     246 -> 247        0.68895
     245 <- 248       -0.10249
 This state for optimization and/or second-order correction.
 Total Energy, E(TD-HF/TD-DFT) =  -3007.08977480
 Copying the excited state density for this state as the 1-particle RhoCI density.

 Excited State   2:      Singlet-A      2.2044 eV  562.44 nm  f=0.1568  <S**2>=0.000
     245 -> 247        0.65744
     246 -> 248        0.24220

 Excited State   3:      Singlet-A      3.2067 eV  386.64 nm  f=0.0027  <S**2>=0.000
     242 -> 247       -0.35930
     244 -> 247        0.59353

 Excited State   4:      Singlet-A      3.2948 eV  376.30 nm  f=0.0161  <S**2>=0.000
     242 -> 247        0.58201
     244 -> 247        0.35115

 Excited State   5:      Singlet-A      3.4341 eV  361.04 nm  f=0.0003  <S**2>=0.000
     241 -> 247        0.57015
     241 -> 249       -0.31597
     241 -> 250        0.13526
     241 -> 251       -0.14657

 The electronic state is 1-A.
 Alpha  occ. eigenvalues --  -46.89814 -19.24764 -19.24322 -19.20544 -19.19870
 Alpha  occ. eigenvalues --  -19.18823 -19.18735 -14.43081 -14.42759 -14.40797
 Alpha  occ. eigenvalues --  -14.38476 -10.39690 -10.39512 -10.34975 -10.34706
 Alpha  occ. eigenvalues --  -10.32153 -10.32110 -10.31885 -10.31736 -10.31663
 Alpha  occ. eigenvalues --  -10.31338 -10.31318 -10.31186 -10.29479 -10.29167
 Alpha  occ. eigenvalues --  -10.29078 -10.28813 -10.28679 -10.28371 -10.28332
 Alpha  occ. eigenvalues --  -10.28310 -10.28169 -10.27854 -10.27731 -10.27724
 Alpha  occ. eigenvalues --  -10.27715 -10.27537 -10.27497 -10.27396 -10.27074
 Alpha  occ. eigenvalues --  -10.26999 -10.26968 -10.26817 -10.26200 -10.26140
 Alpha  occ. eigenvalues --  -10.25952 -10.25901 -10.25756 -10.25691 -10.25615
 Alpha  occ. eigenvalues --  -10.25469 -10.25259 -10.25044 -10.25041 -10.24997
 Alpha  occ. eigenvalues --  -10.24514 -10.24495 -10.24484 -10.24428 -10.24405
 Alpha  occ. eigenvalues --  -10.24375 -10.24315 -10.24198 -10.24028 -10.24009
 Alpha  occ. eigenvalues --  -10.23901  -3.18240  -1.93153  -1.92693  -1.92528
 Alpha  occ. eigenvalues --   -1.15255  -1.14762  -1.11738  -1.07871  -1.07289
 Alpha  occ. eigenvalues --   -1.06555  -1.05881  -1.04993  -1.04130  -1.03146
 Alpha  occ. eigenvalues --   -0.94432  -0.90066  -0.89657  -0.89360  -0.89262
 Alpha  occ. eigenvalues --   -0.88730  -0.88118  -0.87803  -0.86905  -0.86501
 Alpha  occ. eigenvalues --   -0.85829  -0.85296  -0.84210  -0.83947  -0.83532
 Alpha  occ. eigenvalues --   -0.82286  -0.82070  -0.81104  -0.80520  -0.80331
 Alpha  occ. eigenvalues --   -0.79703  -0.78103  -0.77839  -0.77495  -0.76696
 Alpha  occ. eigenvalues --   -0.75828  -0.75305  -0.74926  -0.74733  -0.73978
 Alpha  occ. eigenvalues --   -0.73696  -0.72963  -0.72197  -0.71043  -0.69607
 Alpha  occ. eigenvalues --   -0.68740  -0.68352  -0.67915  -0.66635  -0.66078
 Alpha  occ. eigenvalues --   -0.66016  -0.65516  -0.64686  -0.64338  -0.63563
 Alpha  occ. eigenvalues --   -0.62868  -0.62793  -0.62512  -0.62212  -0.60412
 Alpha  occ. eigenvalues --   -0.60031  -0.59465  -0.59060  -0.58658  -0.58170
 Alpha  occ. eigenvalues --   -0.57099  -0.56764  -0.56739  -0.56313  -0.55710
 Alpha  occ. eigenvalues --   -0.55486  -0.54635  -0.54398  -0.54187  -0.54002
 Alpha  occ. eigenvalues --   -0.53810  -0.53606  -0.53393  -0.53210  -0.53001
 Alpha  occ. eigenvalues --   -0.52797  -0.52701  -0.52037  -0.51953  -0.51564
 Alpha  occ. eigenvalues --   -0.51470  -0.51232  -0.51085  -0.50791  -0.50476
 Alpha  occ. eigenvalues --   -0.50350  -0.50159  -0.49974  -0.49751  -0.49454
 Alpha  occ. eigenvalues --   -0.49326  -0.49103  -0.48958  -0.48725  -0.48552
 Alpha  occ. eigenvalues --   -0.48487  -0.48206  -0.48094  -0.47869  -0.47795
 Alpha  occ. eigenvalues --   -0.47508  -0.47332  -0.47128  -0.46827  -0.46805
 Alpha  occ. eigenvalues --   -0.46375  -0.46222  -0.46073  -0.45951  -0.45832
 Alpha  occ. eigenvalues --   -0.45568  -0.45515  -0.45173  -0.45062  -0.44667
 Alpha  occ. eigenvalues --   -0.44467  -0.44457  -0.44264  -0.44123  -0.43939
 Alpha  occ. eigenvalues --   -0.43763  -0.43702  -0.43610  -0.43402  -0.43185
 Alpha  occ. eigenvalues --   -0.43107  -0.42975  -0.42874  -0.42236  -0.42120
 Alpha  occ. eigenvalues --   -0.41933  -0.41825  -0.41680  -0.41599  -0.41481
 Alpha  occ. eigenvalues --   -0.41237  -0.41118  -0.40821  -0.40438  -0.40381
 Alpha  occ. eigenvalues --   -0.40065  -0.40033  -0.39410  -0.39234  -0.38674
 Alpha  occ. eigenvalues --   -0.38073  -0.37992  -0.37896  -0.37691  -0.37670
 Alpha  occ. eigenvalues --   -0.37223  -0.36899  -0.36717  -0.36528  -0.36435
 Alpha  occ. eigenvalues --   -0.36147  -0.35304  -0.34993  -0.34799  -0.34097
 Alpha  occ. eigenvalues --   -0.34053  -0.33319  -0.33276  -0.31932  -0.31174
 Alpha  occ. eigenvalues --   -0.30704  -0.30507  -0.30281  -0.29604  -0.24658
 Alpha  occ. eigenvalues --   -0.22212
 Alpha virt. eigenvalues --   -0.09716  -0.01957   0.00244   0.01755   0.02128
 Alpha virt. eigenvalues --    0.04449   0.04965   0.05491   0.05759   0.06651
 Alpha virt. eigenvalues --    0.07339   0.07755   0.08342   0.08670   0.08918

 Mulliken charges:
               1
     1  Mg   0.827181
     2  C    0.052297
     3  C   -0.057766
     4  C   -0.060522
     5  C   -0.075637
     6  N   -0.274059
     7  C   -0.102678
     8  C   -0.015049
     9  C   -0.079291
    10  C    0.029470
    11  C    0.070333
    12  C    0.085323
    13  C    0.010943
    14  C    0.179651
    15  O   -0.251494
    16  O   -0.354027
    17  N   -0.352143
    18  C    0.135300
    19  C   -0.144126
    20  C   -0.011699
    21  C    0.129440
    22  C    0.128798
    23  C   -0.043149
    24  O   -0.176536
    25  C    0.042383
    26  N   -0.295533
    27  C    0.040890
    28  C   -0.036486
    29  C   -0.058703
    30  C    0.057530
    31  C    0.085787
    32  C    0.044832
    33  C   -0.007887
    34  N   -0.307558
    35  C    0.080132
    36  C   -0.185121
    37  C    0.000203
    38  C    0.098984
    39  C    0.101134
    40  C    0.051073
    41  O   -0.192578
    42  C    0.020800
    43  C    0.187718
    44  O   -0.168812
    45  O   -0.383471
    46  C    0.180726
    47  C    0.294544
    48  C   -0.113495
    49  C   -0.162509
    50  C    0.096296
    51  C    0.058582
    52  C    0.046365
    53  C    0.017560
    54  C   -0.147751
    55  C    0.045664
    56  C    0.057795
    57  C    0.023372
    58  C    0.053763
    59  C   -0.141459
    60  C    0.067675
    61  C    0.057905
    62  C    0.014483
    63  C    0.036161
    64  C   -0.164232
    65  C    0.036796
    66  C    0.046882
    67  H   -0.013000
    68  H   -0.043624
    69  H   -0.017332
    70  H    0.005854
    71  H    0.010654
    72  H    0.031330
    73  H    0.014910
    74  H    0.022958
    75  H    0.053068
    76  H    0.002734
    77  H    0.038708
    78  H    0.065763
    79  H    0.045977
    80  H   -0.009883
    81  H    0.028095
    82  H    0.033264
    83  H    0.047758
    84  H    0.019527
    85  H    0.000995
    86  H    0.001176
    87  H    0.024224
    88  H    0.008622
    89  H    0.027628
    90  H    0.017876
    91  H    0.007447
    92  H    0.014498
    93  H    0.025924
    94  H    0.020757
    95  H    0.023690
    96  H    0.018096
    97  H    0.030503
    98  H    0.045746
    99  H    0.018338
   100  H    0.035083
   101  H    0.047540
   102  H    0.035427
   103  H    0.022876
   104  H   -0.013492
   105  H    0.021778
   106  H    0.022022
   107  H   -0.002121
   108  H   -0.018018
   109  H    0.006309
   110  H    0.007327
   111  H   -0.002709
   112  H    0.000403
   113  H   -0.009389
   114  H   -0.001998
   115  H    0.012328
   116  H    0.010011
   117  H    0.015293
   118  H   -0.003302
   119  H   -0.024264
   120  H   -0.004989
   121  H   -0.002757
   122  H    0.000967
   123  H   -0.014428
   124  H   -0.011186
   125  H    0.009030
   126  H    0.001315
   127  H   -0.003609
   128  H   -0.017678
   129  H   -0.001874
   130  H    0.004597
   131  H   -0.006584
   132  H   -0.002427
   133  H   -0.003539
   134  H    0.000302
   135  H    0.010039
   136  H    0.001877
   137  H    0.009127
   138  H    0.005353
   139  H   -0.004651
   140  H    0.016730
 Sum of Mulliken charges =  -0.00000

 Dipole moment (field-independent basis, Debye):
    X=              1.6627    Y=              6.6358    Z=             -1.5713  Tot=              7.0191
 Quadrupole moment (field-independent basis, Debye-Ang):
   XX=           -373.4456   YY=           -434.9225   ZZ=           -401.8422
   XY=             29.9650   XZ=            -15.5057   YZ=             49.9760

 Normal termination of Gaussian 16 at Wed Apr 27 22:34:46 2022.
