 Gaussian 16, Revision A.03,
 Gaussian 16:  ES64L-G16RevA.03 25-Dec-2016

 ---------------------------------
 #p PBE1PBE/Def2SVP td=(nstates=5)
 ---------------------------------

 ------------------------------------------------------
 step_1351_chromophore_14 TDDFT with PBE1PBE functional
 ------------------------------------------------------
 Symbolic Z-matrix:
 Charge =  0 Multiplicity = 1

                         Standard orientation:
 ---------------------------------------------------------------------
 Center     Atomic      Atomic             Coordinates (Angstroms)
 Number     Number       Type             X           Y           Z
 ---------------------------------------------------------------------
      1         12           0        5.199675    1.125251   -0.071047
      2          6           0        5.095697   -2.283834    0.415824
      3          6           0        4.271922    0.459438   -3.455550
      4          6           0        4.413748    4.363111   -0.361708
      5          6           0        5.641391    1.531988    3.387749
      6          7           0        4.764869   -0.644417   -1.340102
      7          6           0        4.863213   -1.968173   -0.903826
      8          6           0        4.507997   -2.977017   -1.976721
      9          6           0        4.583844   -2.041482   -3.335216
     10          6           0        4.472380   -0.661554   -2.653457
     11          6           0        5.878972   -2.233871   -4.206420
     12          6           0        3.110267   -3.696936   -1.802632
     13          6           0        2.044654   -2.686727   -1.295850
     14          6           0        0.679390   -3.300696   -0.897598
     15          8           0        0.502190   -4.495702   -0.599568
     16          8           0       -0.324302   -2.328159   -0.797893
     17          7           0        4.467391    2.347053   -1.691621
     18          6           0        4.105711    1.855055   -2.944201
     19          6           0        3.679015    2.977734   -3.733605
     20          6           0        3.591874    4.142908   -2.915886
     21          6           0        4.174270    3.651761   -1.577816
     22          6           0        3.303223    2.843782   -5.228001
     23          6           0        2.988481    5.443424   -3.283644
     24          8           0        2.372429    5.579841   -4.299391
     25          6           0        2.903657    6.581469   -2.299658
     26          7           0        5.090362    2.712289    1.279743
     27          6           0        4.903820    3.974313    0.897396
     28          6           0        5.171547    4.965940    2.038360
     29          6           0        5.074896    4.075816    3.280116
     30          6           0        5.258183    2.650489    2.635201
     31          6           0        6.397543    5.966783    1.870676
     32          6           0        3.863216    4.142931    4.266406
     33          6           0        4.232341    4.646690    5.704855
     34          7           0        5.523829   -0.131184    1.598201
     35          6           0        5.703609    0.179146    2.892358
     36          6           0        5.895098   -0.999808    3.615845
     37          6           0        5.530083   -1.984058    2.680373
     38          6           0        5.343675   -1.429121    1.477557
     39          6           0        6.073539   -1.105590    5.137663
     40          6           0        5.317776   -3.463909    2.529508
     41          8           0        5.308053   -4.397370    3.373271
     42          6           0        5.103356   -3.628428    1.064757
     43          6           0        6.133364   -4.636053    0.613792
     44          8           0        5.989884   -5.826254    0.505392
     45          8           0        7.392613   -3.990929    0.380628
     46          6           0        8.410115   -4.877269   -0.231732
     47          6           0       -1.545678   -2.828452   -0.122925
     48          6           0       -2.534696   -1.679072   -0.359754
     49          6           0       -3.280587   -1.413408   -1.424248
     50          6           0       -3.324563   -2.251066   -2.642625
     51          6           0       -4.010640   -0.036850   -1.563443
     52          6           0       -5.344686    0.273173   -0.930493
     53          6           0       -6.270681   -1.063181   -0.898994
     54          6           0       -7.630238   -1.012139   -0.125052
     55          6           0       -7.548352   -1.546345    1.327577
     56          6           0       -8.943069   -1.710011   -0.757453
     57          6           0      -10.171150   -0.857328   -0.513936
     58          6           0      -11.393997   -1.602558    0.057022
     59          6           0      -12.176483   -0.775819    1.085183
     60          6           0      -11.457112   -0.876460    2.431497
     61          6           0      -13.673313   -1.147247    0.907948
     62          6           0      -14.627380   -0.051778    1.421061
     63          6           0      -15.532916    0.593533    0.281839
     64          6           0      -15.663023    2.082036    0.457584
     65          6           0      -16.501253    2.371930    1.735260
     66          6           0      -16.433784    2.729338   -0.795589
     67          1           0        3.973540    0.163936   -4.463277
     68          1           0        4.209079    5.433987   -0.422570
     69          1           0        5.925062    1.675668    4.432658
     70          1           0        5.290396   -3.730477   -1.885631
     71          1           0        3.783863   -2.221237   -4.052813
     72          1           0        6.504504   -1.356352   -4.042364
     73          1           0        5.533245   -2.349107   -5.233163
     74          1           0        6.420323   -3.163961   -4.030415
     75          1           0        3.217495   -4.671228   -1.325663
     76          1           0        2.762252   -3.819350   -2.828873
     77          1           0        1.776031   -2.025238   -2.119583
     78          1           0        2.341073   -2.169554   -0.382694
     79          1           0        2.238674    3.037452   -5.363501
     80          1           0        3.548075    1.856836   -5.617969
     81          1           0        3.880676    3.483830   -5.896059
     82          1           0        3.932313    6.912091   -2.152721
     83          1           0        2.344085    6.392352   -1.384408
     84          1           0        2.341935    7.376177   -2.790449
     85          1           0        4.301820    5.617256    2.126399
     86          1           0        5.962464    4.250888    3.887973
     87          1           0        6.976842    5.677321    0.993889
     88          1           0        7.043147    5.825175    2.737986
     89          1           0        6.113818    7.019762    1.872741
     90          1           0        3.450992    3.154298    4.465643
     91          1           0        3.110803    4.789958    3.814813
     92          1           0        5.259818    5.004652    5.643996
     93          1           0        4.076705    3.774921    6.339513
     94          1           0        3.579433    5.456947    6.029386
     95          1           0        5.716434   -2.100094    5.404526
     96          1           0        5.353956   -0.453799    5.633439
     97          1           0        7.080605   -1.048537    5.549466
     98          1           0        4.135123   -4.115340    0.952777
     99          1           0        8.980349   -4.240943   -0.908218
    100          1           0        7.994923   -5.599137   -0.935887
    101          1           0        9.107524   -5.322952    0.476814
    102          1           0       -1.478010   -3.075822    0.936110
    103          1           0       -1.849042   -3.709367   -0.688993
    104          1           0       -2.511022   -0.866439    0.365225
    105          1           0       -2.650975   -1.790259   -3.365236
    106          1           0       -4.296313   -2.380914   -3.119327
    107          1           0       -2.869768   -3.226751   -2.473197
    108          1           0       -4.154355    0.193180   -2.619449
    109          1           0       -3.226385    0.692416   -1.363190
    110          1           0       -5.865468    1.083801   -1.439297
    111          1           0       -5.149015    0.632060    0.078956
    112          1           0       -5.715395   -1.837579   -0.368351
    113          1           0       -6.353510   -1.458691   -1.911678
    114          1           0       -7.795108    0.063429   -0.073046
    115          1           0       -6.646889   -2.116619    1.552336
    116          1           0       -8.360397   -2.233410    1.565458
    117          1           0       -7.727323   -0.671309    1.951413
    118          1           0       -9.035848   -2.749831   -0.445558
    119          1           0       -8.729457   -1.852907   -1.817053
    120          1           0      -10.455918   -0.382083   -1.452304
    121          1           0       -9.911716    0.007642    0.095973
    122          1           0      -11.138263   -2.595480    0.424864
    123          1           0      -12.032269   -1.684723   -0.822736
    124          1           0      -12.123119    0.289649    0.864539
    125          1           0      -10.375830   -0.927408    2.303691
    126          1           0      -11.828518   -1.676391    3.071758
    127          1           0      -11.717696    0.012213    3.007800
    128          1           0      -13.778619   -2.039944    1.524638
    129          1           0      -14.022029   -1.454138   -0.077737
    130          1           0      -14.142784    0.720375    2.019233
    131          1           0      -15.321022   -0.592504    2.065155
    132          1           0      -16.551307    0.205581    0.311973
    133          1           0      -15.075706    0.311216   -0.666763
    134          1           0      -14.668954    2.522746    0.524887
    135          1           0      -17.432594    2.916552    1.583138
    136          1           0      -15.923611    3.006277    2.406795
    137          1           0      -16.713992    1.457148    2.287612
    138          1           0      -15.712494    3.287455   -1.391786
    139          1           0      -17.093370    3.527140   -0.454497
    140          1           0      -17.031092    1.997596   -1.339863
 ---------------------------------------------------------------------

 SCF Done:  E(RPBE1PBE) =  -3005.34120394     A.U. after   16 cycles

 Excitation energies and oscillator strengths:

 Excited State   1:      Singlet-A      1.8776 eV  660.33 nm  f=0.3746  <S**2>=0.000
     245 -> 248        0.16353
     246 -> 247        0.69501
     246 <- 247       -0.10960
 This state for optimization and/or second-order correction.
 Total Energy, E(TD-HF/TD-DFT) =  -3005.27220336
 Copying the excited state density for this state as the 1-particle RhoCI density.

 Excited State   2:      Singlet-A      2.2189 eV  558.77 nm  f=0.1434  <S**2>=0.000
     245 -> 247        0.66391
     246 -> 248       -0.22317

 Excited State   3:      Singlet-A      2.8237 eV  439.09 nm  f=0.0007  <S**2>=0.000
     242 -> 247        0.62421
     243 -> 247       -0.17464
     244 -> 247        0.20172

 Excited State   4:      Singlet-A      2.8427 eV  436.15 nm  f=0.0014  <S**2>=0.000
     241 -> 247        0.48409
     241 -> 249       -0.14177
     242 -> 247        0.16769
     244 -> 247       -0.44278

 Excited State   5:      Singlet-A      2.8692 eV  432.11 nm  f=0.0054  <S**2>=0.000
     240 -> 247       -0.13247
     241 -> 247        0.47369
     244 -> 247        0.48512

 The electronic state is 1-A.
 Alpha  occ. eigenvalues --  -46.93190 -19.25460 -19.25075 -19.20842 -19.20175
 Alpha  occ. eigenvalues --  -19.19260 -19.18720 -14.42568 -14.42257 -14.40285
 Alpha  occ. eigenvalues --  -14.38260 -10.36821 -10.36588 -10.32321 -10.31618
 Alpha  occ. eigenvalues --  -10.29646 -10.29497 -10.29271 -10.29263 -10.29185
 Alpha  occ. eigenvalues --  -10.29127 -10.29102 -10.28608 -10.27276 -10.26963
 Alpha  occ. eigenvalues --  -10.26810 -10.26521 -10.26444 -10.26074 -10.26060
 Alpha  occ. eigenvalues --  -10.25897 -10.25813 -10.25557 -10.25404 -10.25326
 Alpha  occ. eigenvalues --  -10.25293 -10.25279 -10.25267 -10.24935 -10.24849
 Alpha  occ. eigenvalues --  -10.24685 -10.24624 -10.24507 -10.23623 -10.23473
 Alpha  occ. eigenvalues --  -10.23435 -10.23383 -10.23354 -10.23325 -10.23061
 Alpha  occ. eigenvalues --  -10.23004 -10.22721 -10.22619 -10.22602 -10.22541
 Alpha  occ. eigenvalues --  -10.22345 -10.22054 -10.22054 -10.22037 -10.21989
 Alpha  occ. eigenvalues --  -10.21768 -10.21724 -10.21716 -10.21452 -10.21420
 Alpha  occ. eigenvalues --  -10.21386  -3.15199  -1.88053  -1.87572  -1.87409
 Alpha  occ. eigenvalues --   -1.10073  -1.09554  -1.06294  -1.02752  -1.02213
 Alpha  occ. eigenvalues --   -1.01419  -1.00790  -0.99636  -0.98677  -0.97631
 Alpha  occ. eigenvalues --   -0.88949  -0.84187  -0.83739  -0.83643  -0.83480
 Alpha  occ. eigenvalues --   -0.82982  -0.82193  -0.82120  -0.81002  -0.80811
 Alpha  occ. eigenvalues --   -0.80140  -0.79488  -0.78382  -0.78276  -0.77756
 Alpha  occ. eigenvalues --   -0.76489  -0.76197  -0.75271  -0.74912  -0.74577
 Alpha  occ. eigenvalues --   -0.73852  -0.72400  -0.72144  -0.71634  -0.71024
 Alpha  occ. eigenvalues --   -0.70136  -0.69438  -0.69035  -0.68819  -0.68392
 Alpha  occ. eigenvalues --   -0.67856  -0.67278  -0.66603  -0.65349  -0.63989
 Alpha  occ. eigenvalues --   -0.63215  -0.62568  -0.62362  -0.60929  -0.60498
 Alpha  occ. eigenvalues --   -0.60467  -0.60033  -0.58917  -0.58846  -0.57696
 Alpha  occ. eigenvalues --   -0.57408  -0.57080  -0.56999  -0.56407  -0.54942
 Alpha  occ. eigenvalues --   -0.54685  -0.54055  -0.53511  -0.53175  -0.52683
 Alpha  occ. eigenvalues --   -0.51512  -0.51328  -0.51169  -0.50730  -0.50283
 Alpha  occ. eigenvalues --   -0.50045  -0.48965  -0.48864  -0.48731  -0.48613
 Alpha  occ. eigenvalues --   -0.48290  -0.48178  -0.47854  -0.47764  -0.47547
 Alpha  occ. eigenvalues --   -0.47336  -0.46932  -0.46662  -0.46527  -0.46068
 Alpha  occ. eigenvalues --   -0.45991  -0.45867  -0.45556  -0.45305  -0.45173
 Alpha  occ. eigenvalues --   -0.44950  -0.44568  -0.44536  -0.44384  -0.44029
 Alpha  occ. eigenvalues --   -0.43791  -0.43703  -0.43523  -0.43416  -0.43164
 Alpha  occ. eigenvalues --   -0.43053  -0.42883  -0.42663  -0.42507  -0.42427
 Alpha  occ. eigenvalues --   -0.42274  -0.41954  -0.41796  -0.41609  -0.41328
 Alpha  occ. eigenvalues --   -0.41166  -0.40903  -0.40714  -0.40630  -0.40497
 Alpha  occ. eigenvalues --   -0.40231  -0.40075  -0.39964  -0.39881  -0.39563
 Alpha  occ. eigenvalues --   -0.39322  -0.39143  -0.38988  -0.38739  -0.38720
 Alpha  occ. eigenvalues --   -0.38441  -0.38385  -0.38333  -0.38072  -0.37950
 Alpha  occ. eigenvalues --   -0.37863  -0.37682  -0.37632  -0.37071  -0.36957
 Alpha  occ. eigenvalues --   -0.36724  -0.36648  -0.36538  -0.36459  -0.36306
 Alpha  occ. eigenvalues --   -0.36044  -0.35924  -0.35702  -0.35350  -0.35112
 Alpha  occ. eigenvalues --   -0.34959  -0.34827  -0.34413  -0.34027  -0.33465
 Alpha  occ. eigenvalues --   -0.32976  -0.32871  -0.32726  -0.32662  -0.32383
 Alpha  occ. eigenvalues --   -0.32103  -0.31802  -0.31682  -0.31502  -0.31365
 Alpha  occ. eigenvalues --   -0.30969  -0.30285  -0.30205  -0.29817  -0.28940
 Alpha  occ. eigenvalues --   -0.28892  -0.28850  -0.28227  -0.27558  -0.26017
 Alpha  occ. eigenvalues --   -0.25709  -0.25574  -0.25557  -0.25430  -0.21590
 Alpha  occ. eigenvalues --   -0.19776
 Alpha virt. eigenvalues --   -0.12116  -0.05534  -0.04007  -0.02321  -0.01060
 Alpha virt. eigenvalues --    0.00225   0.00659   0.00792   0.01196   0.02722
 Alpha virt. eigenvalues --    0.03303   0.03778   0.04695   0.05444   0.05710

 Mulliken charges:
               1
     1  Mg   0.968874
     2  C    0.025135
     3  C   -0.045182
     4  C   -0.058614
     5  C   -0.064032
     6  N   -0.376885
     7  C   -0.017125
     8  C   -0.083044
     9  C   -0.149534
    10  C    0.058080
    11  C    0.016106
    12  C    0.030940
    13  C   -0.070635
    14  C    0.247892
    15  O   -0.281960
    16  O   -0.381286
    17  N   -0.462118
    18  C    0.157804
    19  C   -0.168683
    20  C   -0.061929
    21  C    0.161967
    22  C    0.072792
    23  C    0.005944
    24  O   -0.213367
    25  C   -0.034282
    26  N   -0.401897
    27  C    0.073006
    28  C   -0.108076
    29  C   -0.128845
    30  C    0.091690
    31  C    0.026517
    32  C   -0.012987
    33  C   -0.080913
    34  N   -0.442562
    35  C    0.102645
    36  C   -0.186986
    37  C   -0.060440
    38  C    0.160856
    39  C    0.042954
    40  C    0.147134
    41  O   -0.237156
    42  C   -0.083224
    43  C    0.272127
    44  O   -0.205095
    45  O   -0.410235
    46  C    0.125674
    47  C    0.250120
    48  C   -0.124578
    49  C   -0.211061
    50  C    0.032162
    51  C    0.002581
    52  C   -0.024383
    53  C   -0.031351
    54  C   -0.232474
    55  C   -0.011151
    56  C    0.000748
    57  C   -0.033898
    58  C   -0.008452
    59  C   -0.226782
    60  C    0.005712
    61  C    0.006262
    62  C   -0.047639
    63  C   -0.020749
    64  C   -0.258212
    65  C   -0.022412
    66  C   -0.012827
    67  H    0.016103
    68  H   -0.009069
    69  H    0.014115
    70  H    0.047763
    71  H    0.044573
    72  H    0.058676
    73  H    0.041627
    74  H    0.049043
    75  H    0.080558
    76  H    0.039617
    77  H    0.071646
    78  H    0.100125
    79  H    0.071696
    80  H    0.016797
    81  H    0.054456
    82  H    0.059411
    83  H    0.072629
    84  H    0.047487
    85  H    0.039624
    86  H    0.039424
    87  H    0.051964
    88  H    0.035532
    89  H    0.053747
    90  H    0.050649
    91  H    0.040516
    92  H    0.041611
    93  H    0.052433
    94  H    0.048893
    95  H    0.053313
    96  H    0.045841
    97  H    0.058908
    98  H    0.084691
    99  H    0.041096
   100  H    0.056318
   101  H    0.069543
   102  H    0.061237
   103  H    0.049843
   104  H    0.017123
   105  H    0.051082
   106  H    0.048695
   107  H    0.026586
   108  H    0.015138
   109  H    0.038909
   110  H    0.039117
   111  H    0.030424
   112  H    0.034741
   113  H    0.023366
   114  H    0.036984
   115  H    0.038990
   116  H    0.036607
   117  H    0.041342
   118  H    0.027906
   119  H    0.009506
   120  H    0.028326
   121  H    0.027838
   122  H    0.032236
   123  H    0.020437
   124  H    0.028452
   125  H    0.041502
   126  H    0.028693
   127  H    0.024381
   128  H    0.016407
   129  H    0.027682
   130  H    0.035838
   131  H    0.026832
   132  H    0.030704
   133  H    0.029467
   134  H    0.037247
   135  H    0.036692
   136  H    0.029801
   137  H    0.036397
   138  H    0.033487
   139  H    0.022989
   140  H    0.042981
 Sum of Mulliken charges =  -0.00000

 Dipole moment (field-independent basis, Debye):
    X=              1.8176    Y=              6.3668    Z=             -1.1380  Tot=              6.7182
 Quadrupole moment (field-independent basis, Debye-Ang):
   XX=           -369.1365   YY=           -432.2471   ZZ=           -397.4673
   XY=             28.5143   XZ=            -13.1247   YZ=             51.6334

 Normal termination of Gaussian 16 at Wed Apr 27 22:54:34 2022.
