 Gaussian 16, Revision A.03,
 Gaussian 16:  ES64L-G16RevA.03 25-Dec-2016

 --------------------------------
 #p wB97XD/Def2SVP td=(nstates=5)
 --------------------------------

 -----------------------------------------------------
 step_1351_chromophore_14 TDDFT with wB97XD functional
 -----------------------------------------------------
 Symbolic Z-matrix:
 Charge =  0 Multiplicity = 1

                         Standard orientation:
 ---------------------------------------------------------------------
 Center     Atomic      Atomic             Coordinates (Angstroms)
 Number     Number       Type             X           Y           Z
 ---------------------------------------------------------------------
      1         12           0        5.199675    1.125251   -0.071047
      2          6           0        5.095697   -2.283834    0.415824
      3          6           0        4.271922    0.459438   -3.455550
      4          6           0        4.413748    4.363111   -0.361708
      5          6           0        5.641391    1.531988    3.387749
      6          7           0        4.764869   -0.644417   -1.340102
      7          6           0        4.863213   -1.968173   -0.903826
      8          6           0        4.507997   -2.977017   -1.976721
      9          6           0        4.583844   -2.041482   -3.335216
     10          6           0        4.472380   -0.661554   -2.653457
     11          6           0        5.878972   -2.233871   -4.206420
     12          6           0        3.110267   -3.696936   -1.802632
     13          6           0        2.044654   -2.686727   -1.295850
     14          6           0        0.679390   -3.300696   -0.897598
     15          8           0        0.502190   -4.495702   -0.599568
     16          8           0       -0.324302   -2.328159   -0.797893
     17          7           0        4.467391    2.347053   -1.691621
     18          6           0        4.105711    1.855055   -2.944201
     19          6           0        3.679015    2.977734   -3.733605
     20          6           0        3.591874    4.142908   -2.915886
     21          6           0        4.174270    3.651761   -1.577816
     22          6           0        3.303223    2.843782   -5.228001
     23          6           0        2.988481    5.443424   -3.283644
     24          8           0        2.372429    5.579841   -4.299391
     25          6           0        2.903657    6.581469   -2.299658
     26          7           0        5.090362    2.712289    1.279743
     27          6           0        4.903820    3.974313    0.897396
     28          6           0        5.171547    4.965940    2.038360
     29          6           0        5.074896    4.075816    3.280116
     30          6           0        5.258183    2.650489    2.635201
     31          6           0        6.397543    5.966783    1.870676
     32          6           0        3.863216    4.142931    4.266406
     33          6           0        4.232341    4.646690    5.704855
     34          7           0        5.523829   -0.131184    1.598201
     35          6           0        5.703609    0.179146    2.892358
     36          6           0        5.895098   -0.999808    3.615845
     37          6           0        5.530083   -1.984058    2.680373
     38          6           0        5.343675   -1.429121    1.477557
     39          6           0        6.073539   -1.105590    5.137663
     40          6           0        5.317776   -3.463909    2.529508
     41          8           0        5.308053   -4.397370    3.373271
     42          6           0        5.103356   -3.628428    1.064757
     43          6           0        6.133364   -4.636053    0.613792
     44          8           0        5.989884   -5.826254    0.505392
     45          8           0        7.392613   -3.990929    0.380628
     46          6           0        8.410115   -4.877269   -0.231732
     47          6           0       -1.545678   -2.828452   -0.122925
     48          6           0       -2.534696   -1.679072   -0.359754
     49          6           0       -3.280587   -1.413408   -1.424248
     50          6           0       -3.324563   -2.251066   -2.642625
     51          6           0       -4.010640   -0.036850   -1.563443
     52          6           0       -5.344686    0.273173   -0.930493
     53          6           0       -6.270681   -1.063181   -0.898994
     54          6           0       -7.630238   -1.012139   -0.125052
     55          6           0       -7.548352   -1.546345    1.327577
     56          6           0       -8.943069   -1.710011   -0.757453
     57          6           0      -10.171150   -0.857328   -0.513936
     58          6           0      -11.393997   -1.602558    0.057022
     59          6           0      -12.176483   -0.775819    1.085183
     60          6           0      -11.457112   -0.876460    2.431497
     61          6           0      -13.673313   -1.147247    0.907948
     62          6           0      -14.627380   -0.051778    1.421061
     63          6           0      -15.532916    0.593533    0.281839
     64          6           0      -15.663023    2.082036    0.457584
     65          6           0      -16.501253    2.371930    1.735260
     66          6           0      -16.433784    2.729338   -0.795589
     67          1           0        3.973540    0.163936   -4.463277
     68          1           0        4.209079    5.433987   -0.422570
     69          1           0        5.925062    1.675668    4.432658
     70          1           0        5.290396   -3.730477   -1.885631
     71          1           0        3.783863   -2.221237   -4.052813
     72          1           0        6.504504   -1.356352   -4.042364
     73          1           0        5.533245   -2.349107   -5.233163
     74          1           0        6.420323   -3.163961   -4.030415
     75          1           0        3.217495   -4.671228   -1.325663
     76          1           0        2.762252   -3.819350   -2.828873
     77          1           0        1.776031   -2.025238   -2.119583
     78          1           0        2.341073   -2.169554   -0.382694
     79          1           0        2.238674    3.037452   -5.363501
     80          1           0        3.548075    1.856836   -5.617969
     81          1           0        3.880676    3.483830   -5.896059
     82          1           0        3.932313    6.912091   -2.152721
     83          1           0        2.344085    6.392352   -1.384408
     84          1           0        2.341935    7.376177   -2.790449
     85          1           0        4.301820    5.617256    2.126399
     86          1           0        5.962464    4.250888    3.887973
     87          1           0        6.976842    5.677321    0.993889
     88          1           0        7.043147    5.825175    2.737986
     89          1           0        6.113818    7.019762    1.872741
     90          1           0        3.450992    3.154298    4.465643
     91          1           0        3.110803    4.789958    3.814813
     92          1           0        5.259818    5.004652    5.643996
     93          1           0        4.076705    3.774921    6.339513
     94          1           0        3.579433    5.456947    6.029386
     95          1           0        5.716434   -2.100094    5.404526
     96          1           0        5.353956   -0.453799    5.633439
     97          1           0        7.080605   -1.048537    5.549466
     98          1           0        4.135123   -4.115340    0.952777
     99          1           0        8.980349   -4.240943   -0.908218
    100          1           0        7.994923   -5.599137   -0.935887
    101          1           0        9.107524   -5.322952    0.476814
    102          1           0       -1.478010   -3.075822    0.936110
    103          1           0       -1.849042   -3.709367   -0.688993
    104          1           0       -2.511022   -0.866439    0.365225
    105          1           0       -2.650975   -1.790259   -3.365236
    106          1           0       -4.296313   -2.380914   -3.119327
    107          1           0       -2.869768   -3.226751   -2.473197
    108          1           0       -4.154355    0.193180   -2.619449
    109          1           0       -3.226385    0.692416   -1.363190
    110          1           0       -5.865468    1.083801   -1.439297
    111          1           0       -5.149015    0.632060    0.078956
    112          1           0       -5.715395   -1.837579   -0.368351
    113          1           0       -6.353510   -1.458691   -1.911678
    114          1           0       -7.795108    0.063429   -0.073046
    115          1           0       -6.646889   -2.116619    1.552336
    116          1           0       -8.360397   -2.233410    1.565458
    117          1           0       -7.727323   -0.671309    1.951413
    118          1           0       -9.035848   -2.749831   -0.445558
    119          1           0       -8.729457   -1.852907   -1.817053
    120          1           0      -10.455918   -0.382083   -1.452304
    121          1           0       -9.911716    0.007642    0.095973
    122          1           0      -11.138263   -2.595480    0.424864
    123          1           0      -12.032269   -1.684723   -0.822736
    124          1           0      -12.123119    0.289649    0.864539
    125          1           0      -10.375830   -0.927408    2.303691
    126          1           0      -11.828518   -1.676391    3.071758
    127          1           0      -11.717696    0.012213    3.007800
    128          1           0      -13.778619   -2.039944    1.524638
    129          1           0      -14.022029   -1.454138   -0.077737
    130          1           0      -14.142784    0.720375    2.019233
    131          1           0      -15.321022   -0.592504    2.065155
    132          1           0      -16.551307    0.205581    0.311973
    133          1           0      -15.075706    0.311216   -0.666763
    134          1           0      -14.668954    2.522746    0.524887
    135          1           0      -17.432594    2.916552    1.583138
    136          1           0      -15.923611    3.006277    2.406795
    137          1           0      -16.713992    1.457148    2.287612
    138          1           0      -15.712494    3.287455   -1.391786
    139          1           0      -17.093370    3.527140   -0.454497
    140          1           0      -17.031092    1.997596   -1.339863
 ---------------------------------------------------------------------

 SCF Done:  E(RwB97XD) =  -3007.85230630     A.U. after   19 cycles

 Excitation energies and oscillator strengths:

 Excited State   1:      Singlet-A      1.6872 eV  734.86 nm  f=0.3867  <S**2>=0.000
     245 -> 248       -0.16992
     246 -> 247        0.68694
     245 <- 248       -0.11049
 This state for optimization and/or second-order correction.
 Total Energy, E(TD-HF/TD-DFT) =  -3007.79030319
 Copying the excited state density for this state as the 1-particle RhoCI density.

 Excited State   2:      Singlet-A      2.1528 eV  575.91 nm  f=0.1525  <S**2>=0.000
     245 -> 247        0.65469
     246 -> 248        0.24578

 Excited State   3:      Singlet-A      3.2414 eV  382.50 nm  f=0.0030  <S**2>=0.000
     240 -> 247       -0.13233
     241 -> 247       -0.43314
     244 -> 247        0.52081

 Excited State   4:      Singlet-A      3.3291 eV  372.43 nm  f=0.0129  <S**2>=0.000
     241 -> 247        0.50376
     244 -> 247        0.43540
     246 -> 248       -0.12480

 Excited State   5:      Singlet-A      3.4635 eV  357.98 nm  f=0.0007  <S**2>=0.000
     240 -> 247        0.57261
     240 -> 248        0.14788
     240 -> 249        0.22446
     240 -> 250        0.19487
     241 -> 250       -0.10093

 The electronic state is 1-A.
 Alpha  occ. eigenvalues --  -46.96152 -19.29994 -19.29540 -19.25461 -19.24797
 Alpha  occ. eigenvalues --  -19.23829 -19.23781 -14.47686 -14.47347 -14.45433
 Alpha  occ. eigenvalues --  -14.43004 -10.43550 -10.43324 -10.38955 -10.38687
 Alpha  occ. eigenvalues --  -10.36253 -10.36218 -10.35908 -10.35768 -10.35738
 Alpha  occ. eigenvalues --  -10.35314 -10.35168 -10.35041 -10.33572 -10.33401
 Alpha  occ. eigenvalues --  -10.33156 -10.32735 -10.32725 -10.32445 -10.32370
 Alpha  occ. eigenvalues --  -10.32219 -10.32211 -10.32041 -10.31810 -10.31785
 Alpha  occ. eigenvalues --  -10.31707 -10.31543 -10.31373 -10.31273 -10.30958
 Alpha  occ. eigenvalues --  -10.30943 -10.30914 -10.30840 -10.30183 -10.29947
 Alpha  occ. eigenvalues --  -10.29859 -10.29806 -10.29632 -10.29603 -10.29584
 Alpha  occ. eigenvalues --  -10.29384 -10.29067 -10.29010 -10.28985 -10.28894
 Alpha  occ. eigenvalues --  -10.28420 -10.28419 -10.28406 -10.28358 -10.28329
 Alpha  occ. eigenvalues --  -10.28222 -10.28140 -10.28105 -10.27847 -10.27827
 Alpha  occ. eigenvalues --  -10.27826  -3.22031  -1.95631  -1.95149  -1.94987
 Alpha  occ. eigenvalues --   -1.17385  -1.16916  -1.13994  -1.10024  -1.09485
 Alpha  occ. eigenvalues --   -1.08738  -1.07887  -1.07009  -1.06150  -1.05238
 Alpha  occ. eigenvalues --   -0.96388  -0.91853  -0.91410  -0.91223  -0.91101
 Alpha  occ. eigenvalues --   -0.90681  -0.89870  -0.89733  -0.88675  -0.88484
 Alpha  occ. eigenvalues --   -0.87767  -0.87185  -0.86070  -0.85811  -0.85410
 Alpha  occ. eigenvalues --   -0.84210  -0.83901  -0.83025  -0.82478  -0.82202
 Alpha  occ. eigenvalues --   -0.81517  -0.79982  -0.79755  -0.79453  -0.78588
 Alpha  occ. eigenvalues --   -0.77786  -0.77125  -0.76727  -0.76521  -0.75906
 Alpha  occ. eigenvalues --   -0.75526  -0.74872  -0.74180  -0.72975  -0.71525
 Alpha  occ. eigenvalues --   -0.70728  -0.70206  -0.69937  -0.68527  -0.68010
 Alpha  occ. eigenvalues --   -0.67957  -0.67523  -0.66516  -0.66339  -0.65373
 Alpha  occ. eigenvalues --   -0.64759  -0.64672  -0.64499  -0.64044  -0.62398
 Alpha  occ. eigenvalues --   -0.62014  -0.61480  -0.60964  -0.60601  -0.60178
 Alpha  occ. eigenvalues --   -0.58971  -0.58771  -0.58631  -0.58194  -0.57673
 Alpha  occ. eigenvalues --   -0.57409  -0.56458  -0.56271  -0.56114  -0.55964
 Alpha  occ. eigenvalues --   -0.55662  -0.55559  -0.55257  -0.55086  -0.54946
 Alpha  occ. eigenvalues --   -0.54683  -0.54654  -0.53954  -0.53892  -0.53460
 Alpha  occ. eigenvalues --   -0.53404  -0.53151  -0.52948  -0.52663  -0.52398
 Alpha  occ. eigenvalues --   -0.52252  -0.52122  -0.51873  -0.51645  -0.51371
 Alpha  occ. eigenvalues --   -0.51302  -0.50992  -0.50849  -0.50700  -0.50448
 Alpha  occ. eigenvalues --   -0.50354  -0.50074  -0.49953  -0.49757  -0.49688
 Alpha  occ. eigenvalues --   -0.49422  -0.49206  -0.49037  -0.48811  -0.48739
 Alpha  occ. eigenvalues --   -0.48299  -0.48102  -0.47938  -0.47849  -0.47718
 Alpha  occ. eigenvalues --   -0.47521  -0.47337  -0.47106  -0.46981  -0.46570
 Alpha  occ. eigenvalues --   -0.46373  -0.46333  -0.46143  -0.45954  -0.45803
 Alpha  occ. eigenvalues --   -0.45736  -0.45551  -0.45528  -0.45252  -0.45152
 Alpha  occ. eigenvalues --   -0.45031  -0.44973  -0.44772  -0.44130  -0.44034
 Alpha  occ. eigenvalues --   -0.43800  -0.43739  -0.43561  -0.43504  -0.43397
 Alpha  occ. eigenvalues --   -0.43100  -0.43076  -0.42702  -0.42357  -0.42218
 Alpha  occ. eigenvalues --   -0.41922  -0.41912  -0.41346  -0.41080  -0.40510
 Alpha  occ. eigenvalues --   -0.39903  -0.39872  -0.39816  -0.39655  -0.39499
 Alpha  occ. eigenvalues --   -0.39073  -0.38769  -0.38715  -0.38507  -0.38417
 Alpha  occ. eigenvalues --   -0.37989  -0.37146  -0.37001  -0.36758  -0.35994
 Alpha  occ. eigenvalues --   -0.35896  -0.35554  -0.35109  -0.34141  -0.33177
 Alpha  occ. eigenvalues --   -0.32724  -0.32606  -0.32279  -0.31705  -0.26580
 Alpha  occ. eigenvalues --   -0.24029
 Alpha virt. eigenvalues --   -0.08056  -0.00034   0.02337   0.04153   0.04961
 Alpha virt. eigenvalues --    0.06987   0.07271   0.07663   0.08010   0.09281
 Alpha virt. eigenvalues --    0.09975   0.10475   0.11343   0.12130   0.12418

 Mulliken charges:
               1
     1  Mg   0.960466
     2  C    0.032358
     3  C   -0.065055
     4  C   -0.072552
     5  C   -0.081373
     6  N   -0.344813
     7  C   -0.056703
     8  C   -0.056054
     9  C   -0.128400
    10  C    0.049729
    11  C    0.024445
    12  C    0.038666
    13  C   -0.047002
    14  C    0.238628
    15  O   -0.280382
    16  O   -0.381886
    17  N   -0.431513
    18  C    0.153943
    19  C   -0.160010
    20  C   -0.056540
    21  C    0.158399
    22  C    0.083000
    23  C    0.005469
    24  O   -0.207662
    25  C   -0.023149
    26  N   -0.369283
    27  C    0.062817
    28  C   -0.085490
    29  C   -0.099641
    30  C    0.077572
    31  C    0.037764
    32  C   -0.002126
    33  C   -0.062726
    34  N   -0.399778
    35  C    0.091228
    36  C   -0.189758
    37  C   -0.052288
    38  C    0.136149
    39  C    0.055319
    40  C    0.125124
    41  O   -0.228187
    42  C   -0.045104
    43  C    0.250898
    44  O   -0.200549
    45  O   -0.410695
    46  C    0.141835
    47  C    0.264652
    48  C   -0.134233
    49  C   -0.194162
    50  C    0.045178
    51  C    0.015649
    52  C   -0.006495
    53  C   -0.012604
    54  C   -0.201119
    55  C   -0.001126
    56  C    0.016901
    57  C   -0.019349
    58  C    0.010791
    59  C   -0.196203
    60  C    0.021770
    61  C    0.021149
    62  C   -0.033240
    63  C   -0.002924
    64  C   -0.228528
    65  C   -0.011707
    66  C   -0.000677
    67  H    0.010452
    68  H   -0.019754
    69  H    0.009508
    70  H    0.034907
    71  H    0.035647
    72  H    0.052381
    73  H    0.036597
    74  H    0.044895
    75  H    0.077443
    76  H    0.029456
    77  H    0.062879
    78  H    0.089595
    79  H    0.069643
    80  H    0.012649
    81  H    0.052017
    82  H    0.054747
    83  H    0.069441
    84  H    0.046730
    85  H    0.028083
    86  H    0.023129
    87  H    0.045915
    88  H    0.030157
    89  H    0.049476
    90  H    0.042559
    91  H    0.031717
    92  H    0.034203
    93  H    0.047055
    94  H    0.043300
    95  H    0.047904
    96  H    0.038682
    97  H    0.053814
    98  H    0.076610
    99  H    0.036389
   100  H    0.051298
   101  H    0.065855
   102  H    0.058513
   103  H    0.042683
   104  H    0.013778
   105  H    0.044702
   106  H    0.043656
   107  H    0.019951
   108  H    0.007317
   109  H    0.031899
   110  H    0.032790
   111  H    0.021743
   112  H    0.018663
   113  H    0.012262
   114  H    0.022269
   115  H    0.034838
   116  H    0.027738
   117  H    0.036174
   118  H    0.018813
   119  H    0.001568
   120  H    0.021798
   121  H    0.015250
   122  H    0.023007
   123  H    0.010797
   124  H    0.013283
   125  H    0.028178
   126  H    0.022964
   127  H    0.018535
   128  H    0.006853
   129  H    0.019023
   130  H    0.025164
   131  H    0.018883
   132  H    0.020782
   133  H    0.019467
   134  H    0.026775
   135  H    0.031053
   136  H    0.024259
   137  H    0.028795
   138  H    0.027976
   139  H    0.016038
   140  H    0.037571
 Sum of Mulliken charges =  -0.00000

 Dipole moment (field-independent basis, Debye):
    X=              1.6726    Y=              6.8586    Z=             -1.7417  Tot=              7.2713
 Quadrupole moment (field-independent basis, Debye-Ang):
   XX=           -369.6976   YY=           -430.9441   ZZ=           -397.1711
   XY=             30.3720   XZ=            -16.0999   YZ=             50.4148

 Normal termination of Gaussian 16 at Wed Apr 27 23:27:14 2022.
