 Gaussian 16, Revision A.03,
 Gaussian 16:  ES64L-G16RevA.03 25-Dec-2016

 --------------------
 #p ZINDO=(nstates=5)
 --------------------

 ------------------------------
 step_1351_chromophore_14 ZINDO
 ------------------------------
 Symbolic Z-matrix:
 Charge =  0 Multiplicity = 1

                         Standard orientation:
 ---------------------------------------------------------------------
 Center     Atomic      Atomic             Coordinates (Angstroms)
 Number     Number       Type             X           Y           Z
 ---------------------------------------------------------------------
      1         12           0        5.199675    1.125251   -0.071047
      2          6           0        5.095697   -2.283834    0.415824
      3          6           0        4.271922    0.459438   -3.455550
      4          6           0        4.413748    4.363111   -0.361708
      5          6           0        5.641391    1.531988    3.387749
      6          7           0        4.764869   -0.644417   -1.340102
      7          6           0        4.863213   -1.968173   -0.903826
      8          6           0        4.507997   -2.977017   -1.976721
      9          6           0        4.583844   -2.041482   -3.335216
     10          6           0        4.472380   -0.661554   -2.653457
     11          6           0        5.878972   -2.233871   -4.206420
     12          6           0        3.110267   -3.696936   -1.802632
     13          6           0        2.044654   -2.686727   -1.295850
     14          6           0        0.679390   -3.300696   -0.897598
     15          8           0        0.502190   -4.495702   -0.599568
     16          8           0       -0.324302   -2.328159   -0.797893
     17          7           0        4.467391    2.347053   -1.691621
     18          6           0        4.105711    1.855055   -2.944201
     19          6           0        3.679015    2.977734   -3.733605
     20          6           0        3.591874    4.142908   -2.915886
     21          6           0        4.174270    3.651761   -1.577816
     22          6           0        3.303223    2.843782   -5.228001
     23          6           0        2.988481    5.443424   -3.283644
     24          8           0        2.372429    5.579841   -4.299391
     25          6           0        2.903657    6.581469   -2.299658
     26          7           0        5.090362    2.712289    1.279743
     27          6           0        4.903820    3.974313    0.897396
     28          6           0        5.171547    4.965940    2.038360
     29          6           0        5.074896    4.075816    3.280116
     30          6           0        5.258183    2.650489    2.635201
     31          6           0        6.397543    5.966783    1.870676
     32          6           0        3.863216    4.142931    4.266406
     33          6           0        4.232341    4.646690    5.704855
     34          7           0        5.523829   -0.131184    1.598201
     35          6           0        5.703609    0.179146    2.892358
     36          6           0        5.895098   -0.999808    3.615845
     37          6           0        5.530083   -1.984058    2.680373
     38          6           0        5.343675   -1.429121    1.477557
     39          6           0        6.073539   -1.105590    5.137663
     40          6           0        5.317776   -3.463909    2.529508
     41          8           0        5.308053   -4.397370    3.373271
     42          6           0        5.103356   -3.628428    1.064757
     43          6           0        6.133364   -4.636053    0.613792
     44          8           0        5.989884   -5.826254    0.505392
     45          8           0        7.392613   -3.990929    0.380628
     46          6           0        8.410115   -4.877269   -0.231732
     47          6           0       -1.545678   -2.828452   -0.122925
     48          6           0       -2.534696   -1.679072   -0.359754
     49          6           0       -3.280587   -1.413408   -1.424248
     50          6           0       -3.324563   -2.251066   -2.642625
     51          6           0       -4.010640   -0.036850   -1.563443
     52          6           0       -5.344686    0.273173   -0.930493
     53          6           0       -6.270681   -1.063181   -0.898994
     54          6           0       -7.630238   -1.012139   -0.125052
     55          6           0       -7.548352   -1.546345    1.327577
     56          6           0       -8.943069   -1.710011   -0.757453
     57          6           0      -10.171150   -0.857328   -0.513936
     58          6           0      -11.393997   -1.602558    0.057022
     59          6           0      -12.176483   -0.775819    1.085183
     60          6           0      -11.457112   -0.876460    2.431497
     61          6           0      -13.673313   -1.147247    0.907948
     62          6           0      -14.627380   -0.051778    1.421061
     63          6           0      -15.532916    0.593533    0.281839
     64          6           0      -15.663023    2.082036    0.457584
     65          6           0      -16.501253    2.371930    1.735260
     66          6           0      -16.433784    2.729338   -0.795589
     67          1           0        3.973540    0.163936   -4.463277
     68          1           0        4.209079    5.433987   -0.422570
     69          1           0        5.925062    1.675668    4.432658
     70          1           0        5.290396   -3.730477   -1.885631
     71          1           0        3.783863   -2.221237   -4.052813
     72          1           0        6.504504   -1.356352   -4.042364
     73          1           0        5.533245   -2.349107   -5.233163
     74          1           0        6.420323   -3.163961   -4.030415
     75          1           0        3.217495   -4.671228   -1.325663
     76          1           0        2.762252   -3.819350   -2.828873
     77          1           0        1.776031   -2.025238   -2.119583
     78          1           0        2.341073   -2.169554   -0.382694
     79          1           0        2.238674    3.037452   -5.363501
     80          1           0        3.548075    1.856836   -5.617969
     81          1           0        3.880676    3.483830   -5.896059
     82          1           0        3.932313    6.912091   -2.152721
     83          1           0        2.344085    6.392352   -1.384408
     84          1           0        2.341935    7.376177   -2.790449
     85          1           0        4.301820    5.617256    2.126399
     86          1           0        5.962464    4.250888    3.887973
     87          1           0        6.976842    5.677321    0.993889
     88          1           0        7.043147    5.825175    2.737986
     89          1           0        6.113818    7.019762    1.872741
     90          1           0        3.450992    3.154298    4.465643
     91          1           0        3.110803    4.789958    3.814813
     92          1           0        5.259818    5.004652    5.643996
     93          1           0        4.076705    3.774921    6.339513
     94          1           0        3.579433    5.456947    6.029386
     95          1           0        5.716434   -2.100094    5.404526
     96          1           0        5.353956   -0.453799    5.633439
     97          1           0        7.080605   -1.048537    5.549466
     98          1           0        4.135123   -4.115340    0.952777
     99          1           0        8.980349   -4.240943   -0.908218
    100          1           0        7.994923   -5.599137   -0.935887
    101          1           0        9.107524   -5.322952    0.476814
    102          1           0       -1.478010   -3.075822    0.936110
    103          1           0       -1.849042   -3.709367   -0.688993
    104          1           0       -2.511022   -0.866439    0.365225
    105          1           0       -2.650975   -1.790259   -3.365236
    106          1           0       -4.296313   -2.380914   -3.119327
    107          1           0       -2.869768   -3.226751   -2.473197
    108          1           0       -4.154355    0.193180   -2.619449
    109          1           0       -3.226385    0.692416   -1.363190
    110          1           0       -5.865468    1.083801   -1.439297
    111          1           0       -5.149015    0.632060    0.078956
    112          1           0       -5.715395   -1.837579   -0.368351
    113          1           0       -6.353510   -1.458691   -1.911678
    114          1           0       -7.795108    0.063429   -0.073046
    115          1           0       -6.646889   -2.116619    1.552336
    116          1           0       -8.360397   -2.233410    1.565458
    117          1           0       -7.727323   -0.671309    1.951413
    118          1           0       -9.035848   -2.749831   -0.445558
    119          1           0       -8.729457   -1.852907   -1.817053
    120          1           0      -10.455918   -0.382083   -1.452304
    121          1           0       -9.911716    0.007642    0.095973
    122          1           0      -11.138263   -2.595480    0.424864
    123          1           0      -12.032269   -1.684723   -0.822736
    124          1           0      -12.123119    0.289649    0.864539
    125          1           0      -10.375830   -0.927408    2.303691
    126          1           0      -11.828518   -1.676391    3.071758
    127          1           0      -11.717696    0.012213    3.007800
    128          1           0      -13.778619   -2.039944    1.524638
    129          1           0      -14.022029   -1.454138   -0.077737
    130          1           0      -14.142784    0.720375    2.019233
    131          1           0      -15.321022   -0.592504    2.065155
    132          1           0      -16.551307    0.205581    0.311973
    133          1           0      -15.075706    0.311216   -0.666763
    134          1           0      -14.668954    2.522746    0.524887
    135          1           0      -17.432594    2.916552    1.583138
    136          1           0      -15.923611    3.006277    2.406795
    137          1           0      -16.713992    1.457148    2.287612
    138          1           0      -15.712494    3.287455   -1.391786
    139          1           0      -17.093370    3.527140   -0.454497
    140          1           0      -17.031092    1.997596   -1.339863
 ---------------------------------------------------------------------

 SCF Done:  E(RZINDO/S) =  -474.116983318     A.U. after   20 cycles

 Excitation energies and oscillator strengths:

 Excited State   1:      Singlet-A      1.3034 eV  951.25 nm  f=0.5981  <S**2>=0.000
     175 ->178         0.16201
     176 ->177         0.67059
 This state for optimization and/or second-order correction.
 Total Energy, E(CIS/TDA) =  -474.069084787
 Copying the excited state density for this state as the 1-particle RhoCI density.

 Excited State   2:      Singlet-A      1.9368 eV  640.15 nm  f=0.1010  <S**2>=0.000
     175 ->177         0.57883
     176 ->178        -0.36432

 Excited State   3:      Singlet-A      2.8579 eV  433.83 nm  f=0.0003  <S**2>=0.000
     168 ->177         0.33962
     168 ->178        -0.20285
     168 ->179        -0.32566
     168 ->180        -0.22553
     168 ->181         0.18622
     168 ->184        -0.16194
     168 ->185         0.18289
     171 ->177        -0.10089

 Excited State   4:      Singlet-A      2.9525 eV  419.93 nm  f=0.0020  <S**2>=0.000
     170 ->177         0.23140
     170 ->179         0.32846
     170 ->180        -0.25959
     170 ->181         0.15142
     170 ->185        -0.13528
     170 ->187         0.13853
     170 ->188         0.13495
     171 ->177         0.16453
     171 ->179         0.19046
     171 ->180        -0.15046

 Excited State   5:      Singlet-A      3.0834 eV  402.11 nm  f=0.8908  <S**2>=0.000
     170 ->177        -0.13039
     171 ->177         0.18490
     175 ->177         0.31159
     176 ->178         0.54936

 The electronic state is 1-A.
 Alpha  occ. eigenvalues --   -1.89196  -1.81641  -1.80025  -1.72241  -1.70856
 Alpha  occ. eigenvalues --   -1.70295  -1.64784  -1.62873  -1.59267  -1.57997
 Alpha  occ. eigenvalues --   -1.55697  -1.50778  -1.47976  -1.47619  -1.46856
 Alpha  occ. eigenvalues --   -1.44309  -1.41772  -1.39355  -1.38574  -1.37543
 Alpha  occ. eigenvalues --   -1.35926  -1.32508  -1.32119  -1.30259  -1.28850
 Alpha  occ. eigenvalues --   -1.26830  -1.26502  -1.23118  -1.20589  -1.18316
 Alpha  occ. eigenvalues --   -1.16429  -1.15646  -1.14105  -1.13501  -1.12968
 Alpha  occ. eigenvalues --   -1.12587  -1.10798  -1.10515  -1.06630  -1.04663
 Alpha  occ. eigenvalues --   -1.04060  -1.02262  -1.00757  -0.98156  -0.97450
 Alpha  occ. eigenvalues --   -0.95614  -0.94651  -0.94088  -0.93164  -0.91384
 Alpha  occ. eigenvalues --   -0.90578  -0.89884  -0.88588  -0.87919  -0.86311
 Alpha  occ. eigenvalues --   -0.86027  -0.83824  -0.83692  -0.82470  -0.81077
 Alpha  occ. eigenvalues --   -0.79460  -0.78544  -0.78315  -0.77933  -0.77337
 Alpha  occ. eigenvalues --   -0.76732  -0.76552  -0.74282  -0.73677  -0.73372
 Alpha  occ. eigenvalues --   -0.73083  -0.72835  -0.71070  -0.70889  -0.70407
 Alpha  occ. eigenvalues --   -0.70159  -0.69972  -0.69292  -0.68698  -0.67417
 Alpha  occ. eigenvalues --   -0.67233  -0.66934  -0.66304  -0.66123  -0.65908
 Alpha  occ. eigenvalues --   -0.65132  -0.64727  -0.64298  -0.64193  -0.63530
 Alpha  occ. eigenvalues --   -0.63342  -0.63000  -0.62677  -0.62411  -0.62027
 Alpha  occ. eigenvalues --   -0.61764  -0.60890  -0.60636  -0.60237  -0.60030
 Alpha  occ. eigenvalues --   -0.59382  -0.59314  -0.58892  -0.58794  -0.58342
 Alpha  occ. eigenvalues --   -0.57771  -0.57507  -0.57337  -0.57040  -0.56830
 Alpha  occ. eigenvalues --   -0.56083  -0.56028  -0.55513  -0.55299  -0.55029
 Alpha  occ. eigenvalues --   -0.54888  -0.54630  -0.54235  -0.53814  -0.53109
 Alpha  occ. eigenvalues --   -0.53035  -0.52577  -0.52389  -0.51972  -0.51655
 Alpha  occ. eigenvalues --   -0.51334  -0.51038  -0.50405  -0.50333  -0.50211
 Alpha  occ. eigenvalues --   -0.49987  -0.49835  -0.49575  -0.49475  -0.49365
 Alpha  occ. eigenvalues --   -0.49027  -0.48682  -0.48583  -0.48519  -0.48287
 Alpha  occ. eigenvalues --   -0.47620  -0.47303  -0.47086  -0.46855  -0.46785
 Alpha  occ. eigenvalues --   -0.46461  -0.46418  -0.46321  -0.45880  -0.45627
 Alpha  occ. eigenvalues --   -0.45260  -0.44921  -0.44557  -0.44389  -0.43939
 Alpha  occ. eigenvalues --   -0.43877  -0.43324  -0.42943  -0.42297  -0.42252
 Alpha  occ. eigenvalues --   -0.42117  -0.41637  -0.40916  -0.39351  -0.38938
 Alpha  occ. eigenvalues --   -0.38285  -0.37250  -0.36153  -0.35078  -0.34400
 Alpha  occ. eigenvalues --   -0.34185  -0.33533  -0.32664  -0.32150  -0.27452
 Alpha  occ. eigenvalues --   -0.22928
 Alpha virt. eigenvalues --   -0.09509  -0.02509  -0.00839   0.00728   0.01060
 Alpha virt. eigenvalues --    0.01696   0.02572   0.03117   0.04435   0.05009
 Alpha virt. eigenvalues --    0.05654   0.06290   0.06561   0.07131   0.07292

 Mulliken charges:
               1
     1  Mg   0.428370
     2  C   -0.031157
     3  C   -0.099521
     4  C   -0.094611
     5  C   -0.062584
     6  N   -0.292004
     7  C    0.093601
     8  C   -0.009084
     9  C   -0.008183
    10  C    0.165892
    11  C   -0.050706
    12  C   -0.022874
    13  C    0.011952
    14  C    0.446994
    15  O   -0.516887
    16  O   -0.271245
    17  N   -0.316985
    18  C    0.126559
    19  C    0.052990
    20  C   -0.048847
    21  C    0.145501
    22  C   -0.040001
    23  C    0.337149
    24  O   -0.506097
    25  C   -0.032171
    26  N   -0.258978
    27  C    0.174509
    28  C    0.005215
    29  C   -0.002850
    30  C    0.084913
    31  C   -0.048064
    32  C   -0.031760
    33  C   -0.063826
    34  N   -0.322465
    35  C    0.085981
    36  C   -0.003251
    37  C   -0.050255
    38  C    0.106616
    39  C   -0.047930
    40  C    0.325018
    41  O   -0.527021
    42  C    0.069297
    43  C    0.483523
    44  O   -0.492486
    45  O   -0.289545
    46  C    0.074147
    47  C    0.108524
    48  C   -0.091199
    49  C    0.010829
    50  C   -0.039625
    51  C   -0.024794
    52  C   -0.020780
    53  C   -0.041958
    54  C   -0.022201
    55  C   -0.059438
    56  C   -0.031454
    57  C   -0.031773
    58  C   -0.035910
    59  C   -0.008184
    60  C   -0.052314
    61  C   -0.034765
    62  C   -0.047479
    63  C   -0.031073
    64  C   -0.009669
    65  C   -0.058283
    66  C   -0.069001
    67  H    0.038522
    68  H    0.018005
    69  H    0.032756
    70  H    0.035052
    71  H    0.033556
    72  H    0.030800
    73  H    0.019656
    74  H    0.027864
    75  H    0.056697
    76  H    0.018082
    77  H    0.042524
    78  H    0.056102
    79  H    0.044521
    80  H    0.016391
    81  H    0.036338
    82  H    0.034490
    83  H    0.043111
    84  H    0.031466
    85  H    0.018777
    86  H    0.022855
    87  H    0.027524
    88  H    0.020891
    89  H    0.030000
    90  H    0.028034
    91  H    0.020694
    92  H    0.025343
    93  H    0.026975
    94  H    0.021338
    95  H    0.022639
    96  H    0.024114
    97  H    0.037677
    98  H    0.058551
    99  H    0.017719
   100  H    0.045462
   101  H    0.052585
   102  H    0.055097
   103  H    0.049401
   104  H    0.021469
   105  H    0.026540
   106  H    0.027582
   107  H    0.019258
   108  H    0.007564
   109  H    0.015924
   110  H    0.023745
   111  H    0.018615
   112  H    0.015753
   113  H    0.021285
   114  H    0.016358
   115  H    0.025603
   116  H    0.014414
   117  H    0.017578
   118  H    0.023707
   119  H    0.006739
   120  H    0.013192
   121  H    0.018766
   122  H    0.027945
   123  H    0.009709
   124  H    0.014840
   125  H    0.028568
   126  H    0.019327
   127  H    0.008132
   128  H    0.009162
   129  H    0.029585
   130  H    0.028363
   131  H    0.010496
   132  H    0.020949
   133  H    0.014882
   134  H    0.025415
   135  H    0.022274
   136  H    0.010192
   137  H    0.019113
   138  H    0.016914
   139  H    0.013373
   140  H    0.028773
 Sum of Mulliken charges =  -0.00000

 Dipole moment (field-independent basis, Debye):
    X=              1.4063    Y=             10.5884    Z=             -3.6973  Tot=             11.3032
 N-N= 4.315548754906D+03 E-N= 0.000000000000D+00  KE=-9.304668205841D+03
 Leave Link  601 at Wed Apr 27 23:41:05 2022, MaxMem=  6710886400 cpu:               0.8 elap:               0.0
 (Enter /sw/apps/gaussian-16.0/g16/l9999.exe)
 1\1\GINC-BP1-COMPUTE142\SP\RZINDO CIS\STO-3G\C55H74Mg1N4O6\OF15641\27-
 Apr-2022\0\\#p ZINDO=(nstates=5)\\step_1351_chromophore_14 ZINDO\\0,1\
 Mg,0,46.731,44.88,43.48\C,0,43.337,44.288,43.476\C,0,47.133,41.365,42.
 988\C,0,49.895,45.493,42.586\C,0,46.056,48.325,43.493\N,0,45.435,43.08
 8,43.279\C,0,44.042,43.109,43.386\C,0,43.41,41.744,43.206\C,0,44.719,4
 0.756,43.398\C,0,45.821,41.806,43.144\C,0,44.814,40.038,44.794\C,0,42.
 661,41.513,41.832\C,0,43.458,42.165,40.669\C,0,42.741,42.182,39.296\O,

 Normal termination of Gaussian 16 at Wed Apr 27 23:41:05 2022.
