 Gaussian 16, Revision A.03,
 Gaussian 16:  ES64L-G16RevA.03 25-Dec-2016

 ------------------------------
 #p blyp/Def2SVP td=(nstates=5)
 ------------------------------

 ---------------------------------------------------
 step_1701_chromophore_26 TDDFT with blyp functional
 ---------------------------------------------------
 Symbolic Z-matrix:
 Charge =  0 Multiplicity = 1

                         Standard orientation:
 ---------------------------------------------------------------------
 Center     Atomic      Atomic             Coordinates (Angstroms)
 Number     Number       Type             X           Y           Z
 ---------------------------------------------------------------------
      1         12           0       -3.955486    1.095957    0.646436
      2          6           0       -4.956614   -2.252054    0.019195
      3          6           0       -2.084358    0.027126    3.221676
      4          6           0       -2.769212    4.146632    0.800971
      5          6           0       -5.470064    1.953013   -2.438111
      6          7           0       -3.578340   -0.915540    1.509552
      7          6           0       -3.980912   -2.109344    1.020550
      8          6           0       -3.339742   -3.215904    1.921054
      9          6           0       -2.395386   -2.552593    2.950014
     10          6           0       -2.721477   -1.057643    2.579691
     11          6           0       -2.791949   -2.853742    4.467578
     12          6           0       -2.855042   -4.369033    1.110399
     13          6           0       -1.846678   -3.983924   -0.079433
     14          6           0       -0.427819   -4.491042   -0.121618
     15          8           0        0.038816   -5.489569    0.415161
     16          8           0        0.299703   -3.651641   -0.775236
     17          7           0       -2.703918    2.008700    1.951648
     18          6           0       -2.012083    1.424982    2.978301
     19          6           0       -1.363201    2.406963    3.726772
     20          6           0       -1.635079    3.659333    3.126325
     21          6           0       -2.322680    3.334265    1.870690
     22          6           0       -0.657572    2.211441    5.059284
     23          6           0       -1.190462    5.089815    3.572458
     24          8           0       -0.549527    5.269159    4.569487
     25          6           0       -1.814287    6.382738    2.985018
     26          7           0       -4.042702    2.781090   -0.662042
     27          6           0       -3.501924    3.913120   -0.365116
     28          6           0       -3.816069    4.962014   -1.366554
     29          6           0       -4.712223    4.291570   -2.421584
     30          6           0       -4.802052    2.867189   -1.816536
     31          6           0       -4.522323    6.173707   -0.697056
     32          6           0       -4.274363    4.359289   -3.912427
     33          6           0       -3.594145    5.645583   -4.422159
     34          7           0       -5.086095    0.084868   -0.886851
     35          6           0       -5.659375    0.614218   -1.998603
     36          6           0       -6.360428   -0.449916   -2.720561
     37          6           0       -6.128221   -1.599833   -1.938797
     38          6           0       -5.347076   -1.229148   -0.863190
     39          6           0       -7.023849   -0.455436   -4.000580
     40          6           0       -6.362546   -3.018073   -1.824716
     41          8           0       -7.035019   -3.741588   -2.560213
     42          6           0       -5.703246   -3.538787   -0.485668
     43          6           0       -6.808751   -3.884974    0.409462
     44          8           0       -7.092403   -5.016151    0.765301
     45          8           0       -7.541005   -2.731617    0.609307
     46          6           0       -8.871287   -3.049201    1.078642
     47          6           0        1.731254   -3.904748   -1.007061
     48          6           0        2.267897   -2.877030   -1.957910
     49          6           0        3.489878   -2.233626   -1.976600
     50          6           0        4.548135   -2.489078   -0.945159
     51          6           0        3.978111   -1.381819   -3.145884
     52          6           0        3.985603    0.172769   -2.831183
     53          6           0        5.463902    0.707703   -3.070320
     54          6           0        6.059016    1.399905   -1.749128
     55          6           0        6.076725    2.913552   -1.961131
     56          6           0        7.502031    0.890875   -1.512991
     57          6           0        7.967372    1.113259   -0.036880
     58          6           0        7.908322   -0.196945    0.786545
     59          6           0        9.257925   -0.466816    1.549151
     60          6           0        9.092392   -1.436241    2.779874
     61          6           0       10.434946   -0.826359    0.567606
     62          6           0       11.686401   -0.036615    0.895163
     63          6           0       12.947676   -0.873200    0.350313
     64          6           0       14.083150   -0.016863   -0.358605
     65          6           0       13.615511    0.208306   -1.868014
     66          6           0       15.480846   -0.677172   -0.378021
     67          1           0       -1.460865   -0.439443    3.987275
     68          1           0       -2.272276    5.117477    0.850200
     69          1           0       -5.883936    2.245544   -3.405256
     70          1           0       -4.153830   -3.639264    2.509455
     71          1           0       -1.390825   -2.910505    2.725849
     72          1           0       -3.508684   -3.672122    4.537322
     73          1           0       -3.254053   -1.966225    4.898985
     74          1           0       -1.907623   -3.085950    5.062641
     75          1           0       -3.625937   -5.123154    0.955138
     76          1           0       -2.206999   -4.878411    1.824281
     77          1           0       -1.772677   -2.899836   -0.169980
     78          1           0       -2.349007   -4.344326   -0.976787
     79          1           0        0.223202    2.836722    5.206735
     80          1           0       -0.344069    1.168534    5.021251
     81          1           0       -1.293493    2.347576    5.933571
     82          1           0       -2.885642    6.269442    2.821215
     83          1           0       -1.320942    6.727579    2.076048
     84          1           0       -1.679351    7.197836    3.696402
     85          1           0       -2.880076    5.268334   -1.833288
     86          1           0       -5.743990    4.629608   -2.325059
     87          1           0       -3.812468    6.989613   -0.835076
     88          1           0       -4.663459    5.967936    0.363473
     89          1           0       -5.468831    6.501676   -1.126468
     90          1           0       -5.198626    4.414804   -4.486767
     91          1           0       -3.771481    3.454697   -4.255022
     92          1           0       -2.545014    5.433845   -4.627346
     93          1           0       -3.757959    6.390903   -3.642947
     94          1           0       -4.212073    6.028123   -5.234032
     95          1           0       -6.660279   -1.410091   -4.381267
     96          1           0       -6.643705    0.367552   -4.605036
     97          1           0       -8.100905   -0.357309   -3.864654
     98          1           0       -5.021440   -4.388482   -0.530306
     99          1           0       -9.197026   -3.841250    0.404676
    100          1           0       -9.516821   -2.171490    1.036077
    101          1           0       -8.880976   -3.475242    2.081911
    102          1           0        1.807648   -4.828261   -1.580939
    103          1           0        2.313903   -3.952908   -0.087734
    104          1           0        1.625192   -2.730272   -2.825267
    105          1           0        5.186689   -3.261184   -1.374187
    106          1           0        4.187030   -2.891872    0.001079
    107          1           0        5.100455   -1.553276   -0.862306
    108          1           0        3.165996   -1.405830   -3.872502
    109          1           0        4.926607   -1.797978   -3.485656
    110          1           0        3.758326    0.308313   -1.773214
    111          1           0        3.246784    0.768131   -3.366892
    112          1           0        5.390737    1.443183   -3.870639
    113          1           0        6.165845   -0.094798   -3.296389
    114          1           0        5.321815    1.239395   -0.961757
    115          1           0        5.257532    3.404733   -1.436493
    116          1           0        6.089745    3.297676   -2.981217
    117          1           0        6.920232    3.399741   -1.472232
    118          1           0        8.193922    1.520534   -2.072651
    119          1           0        7.645596   -0.160954   -1.757186
    120          1           0        7.242357    1.777044    0.435646
    121          1           0        8.950944    1.571489   -0.141144
    122          1           0        7.918257   -1.102483    0.179079
    123          1           0        6.996480   -0.254331    1.380455
    124          1           0        9.561826    0.524064    1.884465
    125          1           0        9.039099   -0.748494    3.622683
    126          1           0        9.905638   -2.149458    2.910116
    127          1           0        8.088113   -1.854101    2.708652
    128          1           0       10.160129   -0.563351   -0.453725
    129          1           0       10.662269   -1.888593    0.661168
    130          1           0       11.875511    0.078245    1.962233
    131          1           0       11.718024    0.905940    0.349997
    132          1           0       12.699913   -1.618874   -0.404710
    133          1           0       13.481417   -1.355653    1.168885
    134          1           0       14.311405    0.873055    0.227944
    135          1           0       12.587480   -0.122229   -2.010267
    136          1           0       14.285354   -0.231354   -2.606666
    137          1           0       13.598248    1.266059   -2.133866
    138          1           0       16.160094   -0.157191    0.298918
    139          1           0       15.888778   -0.767071   -1.384885
    140          1           0       15.377866   -1.669082    0.063331
 ---------------------------------------------------------------------

 SCF Done:  E(RB-LYP) =  -3007.34653961     A.U. after   21 cycles

 Excitation energies and oscillator strengths:

 Excited State   1:      Singlet-A      1.8530 eV  669.10 nm  f=0.3002  <S**2>=0.000
     244 -> 247       -0.24793
     245 -> 248       -0.17072
     246 -> 247        0.64742
     246 <- 247       -0.14344
 This state for optimization and/or second-order correction.
 Total Energy, E(TD-HF/TD-DFT) =  -3007.27844295
 Copying the excited state density for this state as the 1-particle RhoCI density.

 Excited State   2:      Singlet-A      1.8845 eV  657.90 nm  f=0.0376  <S**2>=0.000
     243 -> 247       -0.39412
     244 -> 247        0.39488
     245 -> 247        0.38348
     246 -> 247        0.18024

 Excited State   3:      Singlet-A      1.9139 eV  647.82 nm  f=0.0300  <S**2>=0.000
     243 -> 247        0.34233
     244 -> 247        0.52728
     245 -> 247       -0.26048
     246 -> 247        0.17071

 Excited State   4:      Singlet-A      2.1128 eV  586.83 nm  f=0.0625  <S**2>=0.000
     243 -> 247        0.46587
     245 -> 247        0.46869
     246 -> 248        0.21115

 Excited State   5:      Singlet-A      2.2310 eV  555.74 nm  f=0.0012  <S**2>=0.000
     242 -> 247        0.70560

 The electronic state is 1-A.
 Alpha  occ. eigenvalues --  -46.27175 -18.82355 -18.82317 -18.77370 -18.75866
 Alpha  occ. eigenvalues --  -18.75716 -18.75251 -14.03638 -14.02922 -14.00819
 Alpha  occ. eigenvalues --  -14.00746 -10.03962 -10.03393 -10.00296  -9.99865
 Alpha  occ. eigenvalues --   -9.98700  -9.97376  -9.97030  -9.96706  -9.96387
 Alpha  occ. eigenvalues --   -9.96187  -9.95609  -9.95399  -9.95258  -9.94873
 Alpha  occ. eigenvalues --   -9.94195  -9.94167  -9.94017  -9.93700  -9.93629
 Alpha  occ. eigenvalues --   -9.93552  -9.93538  -9.93466  -9.93423  -9.93155
 Alpha  occ. eigenvalues --   -9.93135  -9.93022  -9.92921  -9.92858  -9.92835
 Alpha  occ. eigenvalues --   -9.92679  -9.92674  -9.92593  -9.92455  -9.92438
 Alpha  occ. eigenvalues --   -9.92379  -9.92346  -9.92141  -9.92132  -9.92035
 Alpha  occ. eigenvalues --   -9.92004  -9.91921  -9.91799  -9.91747  -9.91634
 Alpha  occ. eigenvalues --   -9.91513  -9.91435  -9.91343  -9.91246  -9.91225
 Alpha  occ. eigenvalues --   -9.91181  -9.91158  -9.90946  -9.90800  -9.90523
 Alpha  occ. eigenvalues --   -9.90436  -2.91804  -1.72242  -1.71673  -1.71522
 Alpha  occ. eigenvalues --   -1.00070  -0.98403  -0.93032  -0.90932  -0.90670
 Alpha  occ. eigenvalues --   -0.88917  -0.87932  -0.86625  -0.85953  -0.85284
 Alpha  occ. eigenvalues --   -0.75769  -0.73739  -0.73407  -0.73008  -0.72762
 Alpha  occ. eigenvalues --   -0.72461  -0.71719  -0.71339  -0.70789  -0.70284
 Alpha  occ. eigenvalues --   -0.69740  -0.69451  -0.68491  -0.68168  -0.67393
 Alpha  occ. eigenvalues --   -0.66667  -0.66041  -0.65377  -0.64843  -0.64366
 Alpha  occ. eigenvalues --   -0.64077  -0.62880  -0.62368  -0.61650  -0.60897
 Alpha  occ. eigenvalues --   -0.60432  -0.60052  -0.59745  -0.59439  -0.58698
 Alpha  occ. eigenvalues --   -0.58296  -0.57920  -0.57209  -0.56260  -0.55568
 Alpha  occ. eigenvalues --   -0.54170  -0.54003  -0.52833  -0.52390  -0.51492
 Alpha  occ. eigenvalues --   -0.51360  -0.51175  -0.50975  -0.50578  -0.49857
 Alpha  occ. eigenvalues --   -0.49635  -0.49476  -0.49332  -0.48179  -0.46869
 Alpha  occ. eigenvalues --   -0.46546  -0.46045  -0.45622  -0.45151  -0.44673
 Alpha  occ. eigenvalues --   -0.44437  -0.44087  -0.43727  -0.43492  -0.43092
 Alpha  occ. eigenvalues --   -0.42783  -0.42328  -0.42059  -0.42019  -0.41769
 Alpha  occ. eigenvalues --   -0.41287  -0.40803  -0.40474  -0.40374  -0.40189
 Alpha  occ. eigenvalues --   -0.39985  -0.39631  -0.39466  -0.39301  -0.39034
 Alpha  occ. eigenvalues --   -0.38986  -0.38911  -0.38814  -0.38665  -0.38362
 Alpha  occ. eigenvalues --   -0.38056  -0.37754  -0.37491  -0.37374  -0.37216
 Alpha  occ. eigenvalues --   -0.37146  -0.36982  -0.36868  -0.36676  -0.36507
 Alpha  occ. eigenvalues --   -0.36326  -0.36203  -0.35988  -0.35724  -0.35645
 Alpha  occ. eigenvalues --   -0.35449  -0.35410  -0.35135  -0.35075  -0.34824
 Alpha  occ. eigenvalues --   -0.34740  -0.34285  -0.34201  -0.34158  -0.33831
 Alpha  occ. eigenvalues --   -0.33654  -0.33650  -0.33528  -0.33084  -0.32986
 Alpha  occ. eigenvalues --   -0.32933  -0.32822  -0.32765  -0.32684  -0.32611
 Alpha  occ. eigenvalues --   -0.32430  -0.32401  -0.32260  -0.31902  -0.31759
 Alpha  occ. eigenvalues --   -0.31587  -0.31406  -0.31129  -0.30976  -0.30838
 Alpha  occ. eigenvalues --   -0.30721  -0.30594  -0.30449  -0.30201  -0.30066
 Alpha  occ. eigenvalues --   -0.29987  -0.29861  -0.29455  -0.29364  -0.29018
 Alpha  occ. eigenvalues --   -0.28891  -0.28668  -0.28564  -0.28274  -0.28209
 Alpha  occ. eigenvalues --   -0.27679  -0.27329  -0.27215  -0.27110  -0.26818
 Alpha  occ. eigenvalues --   -0.26496  -0.26135  -0.25539  -0.25434  -0.25266
 Alpha  occ. eigenvalues --   -0.25182  -0.24819  -0.24474  -0.24263  -0.23574
 Alpha  occ. eigenvalues --   -0.23374  -0.22872  -0.21959  -0.21105  -0.20579
 Alpha  occ. eigenvalues --   -0.20381  -0.19996  -0.18910  -0.18679  -0.17483
 Alpha  occ. eigenvalues --   -0.16144
 Alpha virt. eigenvalues --   -0.11805  -0.06516  -0.06144  -0.04697  -0.02942
 Alpha virt. eigenvalues --   -0.02475  -0.02329  -0.01382  -0.01052  -0.00032
 Alpha virt. eigenvalues --    0.00950   0.01617   0.01973   0.02361   0.03032

 Mulliken charges:
               1
     1  Mg   0.689878
     2  C   -0.031776
     3  C   -0.024663
     4  C   -0.057859
     5  C   -0.107369
     6  N   -0.196539
     7  C   -0.083547
     8  C    0.046696
     9  C    0.003246
    10  C   -0.070676
    11  C    0.110776
    12  C    0.100691
    13  C    0.091411
    14  C    0.040560
    15  O   -0.208382
    16  O   -0.217372
    17  N   -0.331010
    18  C    0.202163
    19  C   -0.140203
    20  C    0.025871
    21  C    0.097371
    22  C    0.171043
    23  C   -0.055772
    24  O   -0.140913
    25  C    0.098064
    26  N   -0.194199
    27  C   -0.002885
    28  C    0.037998
    29  C    0.056044
    30  C    0.023829
    31  C    0.120673
    32  C    0.056941
    33  C    0.094288
    34  N   -0.205389
    35  C    0.124210
    36  C   -0.215719
    37  C    0.140690
    38  C    0.066403
    39  C    0.190764
    40  C   -0.081949
    41  O   -0.144459
    42  C    0.085906
    43  C    0.108521
    44  O   -0.157611
    45  O   -0.280154
    46  C    0.231388
    47  C    0.343217
    48  C   -0.107059
    49  C   -0.185958
    50  C    0.142383
    51  C    0.149591
    52  C    0.042228
    53  C    0.105180
    54  C   -0.087005
    55  C    0.099534
    56  C    0.087801
    57  C    0.075375
    58  C    0.067429
    59  C   -0.103199
    60  C    0.136492
    61  C    0.079386
    62  C    0.092710
    63  C    0.060312
    64  C   -0.116563
    65  C    0.087824
    66  C    0.106560
    67  H   -0.067548
    68  H   -0.073288
    69  H   -0.070010
    70  H   -0.030727
    71  H   -0.003228
    72  H    0.001322
    73  H   -0.001006
    74  H    0.000831
    75  H    0.001564
    76  H   -0.029244
    77  H    0.010198
    78  H    0.012088
    79  H    0.006598
    80  H   -0.024563
    81  H    0.009601
    82  H    0.009905
    83  H    0.013570
    84  H   -0.009394
    85  H   -0.019672
    86  H   -0.031037
    87  H   -0.007390
    88  H    0.000683
    89  H   -0.005229
    90  H   -0.027906
    91  H   -0.015309
    92  H    0.012078
    93  H   -0.019663
    94  H   -0.010761
    95  H    0.020691
    96  H   -0.021301
    97  H    0.013517
    98  H   -0.020623
    99  H    0.013471
   100  H    0.013356
   101  H    0.006159
   102  H    0.005148
   103  H   -0.002780
   104  H   -0.043005
   105  H    0.002489
   106  H   -0.007510
   107  H    0.001700
   108  H   -0.036502
   109  H   -0.004077
   110  H   -0.019340
   111  H   -0.016660
   112  H   -0.026538
   113  H   -0.030072
   114  H   -0.026245
   115  H   -0.029301
   116  H   -0.013523
   117  H   -0.030757
   118  H   -0.035254
   119  H   -0.023459
   120  H   -0.022957
   121  H   -0.019094
   122  H   -0.025722
   123  H   -0.029565
   124  H   -0.035302
   125  H   -0.017009
   126  H   -0.005450
   127  H   -0.019200
   128  H   -0.027845
   129  H   -0.023572
   130  H   -0.019457
   131  H   -0.020628
   132  H   -0.024908
   133  H   -0.037052
   134  H   -0.031535
   135  H   -0.012978
   136  H   -0.012041
   137  H   -0.020092
   138  H   -0.018189
   139  H   -0.012088
   140  H   -0.030576
 Sum of Mulliken charges =  -0.00000

 Dipole moment (field-independent basis, Debye):
    X=              1.0400    Y=              5.8647    Z=             -1.8959  Tot=              6.2507
 Quadrupole moment (field-independent basis, Debye-Ang):
   XX=           -395.2010   YY=           -436.9296   ZZ=           -407.3767
   XY=            -42.7992   XZ=            -12.9918   YZ=            -29.3085

 Normal termination of Gaussian 16 at Thu Apr 28 20:51:46 2022.
