 Gaussian 16, Revision A.03,
 Gaussian 16:  ES64L-G16RevA.03 25-Dec-2016

 -----------------------------------
 #p cam-b3lyp/Def2SVP td=(nstates=5)
 -----------------------------------

 --------------------------------------------------------
 step_1701_chromophore_26 TDDFT with cam-b3lyp functional
 --------------------------------------------------------
 Symbolic Z-matrix:
 Charge =  0 Multiplicity = 1

                         Standard orientation:
 ---------------------------------------------------------------------
 Center     Atomic      Atomic             Coordinates (Angstroms)
 Number     Number       Type             X           Y           Z
 ---------------------------------------------------------------------
      1         12           0       -3.955486    1.095957    0.646436
      2          6           0       -4.956614   -2.252054    0.019195
      3          6           0       -2.084358    0.027126    3.221676
      4          6           0       -2.769212    4.146632    0.800971
      5          6           0       -5.470064    1.953013   -2.438111
      6          7           0       -3.578340   -0.915540    1.509552
      7          6           0       -3.980912   -2.109344    1.020550
      8          6           0       -3.339742   -3.215904    1.921054
      9          6           0       -2.395386   -2.552593    2.950014
     10          6           0       -2.721477   -1.057643    2.579691
     11          6           0       -2.791949   -2.853742    4.467578
     12          6           0       -2.855042   -4.369033    1.110399
     13          6           0       -1.846678   -3.983924   -0.079433
     14          6           0       -0.427819   -4.491042   -0.121618
     15          8           0        0.038816   -5.489569    0.415161
     16          8           0        0.299703   -3.651641   -0.775236
     17          7           0       -2.703918    2.008700    1.951648
     18          6           0       -2.012083    1.424982    2.978301
     19          6           0       -1.363201    2.406963    3.726772
     20          6           0       -1.635079    3.659333    3.126325
     21          6           0       -2.322680    3.334265    1.870690
     22          6           0       -0.657572    2.211441    5.059284
     23          6           0       -1.190462    5.089815    3.572458
     24          8           0       -0.549527    5.269159    4.569487
     25          6           0       -1.814287    6.382738    2.985018
     26          7           0       -4.042702    2.781090   -0.662042
     27          6           0       -3.501924    3.913120   -0.365116
     28          6           0       -3.816069    4.962014   -1.366554
     29          6           0       -4.712223    4.291570   -2.421584
     30          6           0       -4.802052    2.867189   -1.816536
     31          6           0       -4.522323    6.173707   -0.697056
     32          6           0       -4.274363    4.359289   -3.912427
     33          6           0       -3.594145    5.645583   -4.422159
     34          7           0       -5.086095    0.084868   -0.886851
     35          6           0       -5.659375    0.614218   -1.998603
     36          6           0       -6.360428   -0.449916   -2.720561
     37          6           0       -6.128221   -1.599833   -1.938797
     38          6           0       -5.347076   -1.229148   -0.863190
     39          6           0       -7.023849   -0.455436   -4.000580
     40          6           0       -6.362546   -3.018073   -1.824716
     41          8           0       -7.035019   -3.741588   -2.560213
     42          6           0       -5.703246   -3.538787   -0.485668
     43          6           0       -6.808751   -3.884974    0.409462
     44          8           0       -7.092403   -5.016151    0.765301
     45          8           0       -7.541005   -2.731617    0.609307
     46          6           0       -8.871287   -3.049201    1.078642
     47          6           0        1.731254   -3.904748   -1.007061
     48          6           0        2.267897   -2.877030   -1.957910
     49          6           0        3.489878   -2.233626   -1.976600
     50          6           0        4.548135   -2.489078   -0.945159
     51          6           0        3.978111   -1.381819   -3.145884
     52          6           0        3.985603    0.172769   -2.831183
     53          6           0        5.463902    0.707703   -3.070320
     54          6           0        6.059016    1.399905   -1.749128
     55          6           0        6.076725    2.913552   -1.961131
     56          6           0        7.502031    0.890875   -1.512991
     57          6           0        7.967372    1.113259   -0.036880
     58          6           0        7.908322   -0.196945    0.786545
     59          6           0        9.257925   -0.466816    1.549151
     60          6           0        9.092392   -1.436241    2.779874
     61          6           0       10.434946   -0.826359    0.567606
     62          6           0       11.686401   -0.036615    0.895163
     63          6           0       12.947676   -0.873200    0.350313
     64          6           0       14.083150   -0.016863   -0.358605
     65          6           0       13.615511    0.208306   -1.868014
     66          6           0       15.480846   -0.677172   -0.378021
     67          1           0       -1.460865   -0.439443    3.987275
     68          1           0       -2.272276    5.117477    0.850200
     69          1           0       -5.883936    2.245544   -3.405256
     70          1           0       -4.153830   -3.639264    2.509455
     71          1           0       -1.390825   -2.910505    2.725849
     72          1           0       -3.508684   -3.672122    4.537322
     73          1           0       -3.254053   -1.966225    4.898985
     74          1           0       -1.907623   -3.085950    5.062641
     75          1           0       -3.625937   -5.123154    0.955138
     76          1           0       -2.206999   -4.878411    1.824281
     77          1           0       -1.772677   -2.899836   -0.169980
     78          1           0       -2.349007   -4.344326   -0.976787
     79          1           0        0.223202    2.836722    5.206735
     80          1           0       -0.344069    1.168534    5.021251
     81          1           0       -1.293493    2.347576    5.933571
     82          1           0       -2.885642    6.269442    2.821215
     83          1           0       -1.320942    6.727579    2.076048
     84          1           0       -1.679351    7.197836    3.696402
     85          1           0       -2.880076    5.268334   -1.833288
     86          1           0       -5.743990    4.629608   -2.325059
     87          1           0       -3.812468    6.989613   -0.835076
     88          1           0       -4.663459    5.967936    0.363473
     89          1           0       -5.468831    6.501676   -1.126468
     90          1           0       -5.198626    4.414804   -4.486767
     91          1           0       -3.771481    3.454697   -4.255022
     92          1           0       -2.545014    5.433845   -4.627346
     93          1           0       -3.757959    6.390903   -3.642947
     94          1           0       -4.212073    6.028123   -5.234032
     95          1           0       -6.660279   -1.410091   -4.381267
     96          1           0       -6.643705    0.367552   -4.605036
     97          1           0       -8.100905   -0.357309   -3.864654
     98          1           0       -5.021440   -4.388482   -0.530306
     99          1           0       -9.197026   -3.841250    0.404676
    100          1           0       -9.516821   -2.171490    1.036077
    101          1           0       -8.880976   -3.475242    2.081911
    102          1           0        1.807648   -4.828261   -1.580939
    103          1           0        2.313903   -3.952908   -0.087734
    104          1           0        1.625192   -2.730272   -2.825267
    105          1           0        5.186689   -3.261184   -1.374187
    106          1           0        4.187030   -2.891872    0.001079
    107          1           0        5.100455   -1.553276   -0.862306
    108          1           0        3.165996   -1.405830   -3.872502
    109          1           0        4.926607   -1.797978   -3.485656
    110          1           0        3.758326    0.308313   -1.773214
    111          1           0        3.246784    0.768131   -3.366892
    112          1           0        5.390737    1.443183   -3.870639
    113          1           0        6.165845   -0.094798   -3.296389
    114          1           0        5.321815    1.239395   -0.961757
    115          1           0        5.257532    3.404733   -1.436493
    116          1           0        6.089745    3.297676   -2.981217
    117          1           0        6.920232    3.399741   -1.472232
    118          1           0        8.193922    1.520534   -2.072651
    119          1           0        7.645596   -0.160954   -1.757186
    120          1           0        7.242357    1.777044    0.435646
    121          1           0        8.950944    1.571489   -0.141144
    122          1           0        7.918257   -1.102483    0.179079
    123          1           0        6.996480   -0.254331    1.380455
    124          1           0        9.561826    0.524064    1.884465
    125          1           0        9.039099   -0.748494    3.622683
    126          1           0        9.905638   -2.149458    2.910116
    127          1           0        8.088113   -1.854101    2.708652
    128          1           0       10.160129   -0.563351   -0.453725
    129          1           0       10.662269   -1.888593    0.661168
    130          1           0       11.875511    0.078245    1.962233
    131          1           0       11.718024    0.905940    0.349997
    132          1           0       12.699913   -1.618874   -0.404710
    133          1           0       13.481417   -1.355653    1.168885
    134          1           0       14.311405    0.873055    0.227944
    135          1           0       12.587480   -0.122229   -2.010267
    136          1           0       14.285354   -0.231354   -2.606666
    137          1           0       13.598248    1.266059   -2.133866
    138          1           0       16.160094   -0.157191    0.298918
    139          1           0       15.888778   -0.767071   -1.384885
    140          1           0       15.377866   -1.669082    0.063331
 ---------------------------------------------------------------------

 SCF Done:  E(RCAM-B3LYP) =  -3007.15035155     A.U. after   17 cycles

 Excitation energies and oscillator strengths:

 Excited State   1:      Singlet-A      1.7565 eV  705.85 nm  f=0.4170  <S**2>=0.000
     245 -> 248       -0.17286
     246 -> 247        0.68781
     245 <- 248       -0.10456
 This state for optimization and/or second-order correction.
 Total Energy, E(TD-HF/TD-DFT) =  -3007.08580085
 Copying the excited state density for this state as the 1-particle RhoCI density.

 Excited State   2:      Singlet-A      2.2796 eV  543.90 nm  f=0.1323  <S**2>=0.000
     245 -> 247        0.65145
     246 -> 248        0.25858

 Excited State   3:      Singlet-A      3.2934 eV  376.46 nm  f=0.0023  <S**2>=0.000
     242 -> 247        0.55594
     244 -> 247       -0.39829

 Excited State   4:      Singlet-A      3.3982 eV  364.85 nm  f=0.0161  <S**2>=0.000
     241 -> 247       -0.19199
     242 -> 247        0.35005
     244 -> 247        0.55071
     246 -> 248       -0.10569

 Excited State   5:      Singlet-A      3.5252 eV  351.71 nm  f=0.0180  <S**2>=0.000
     239 -> 247        0.14180
     239 -> 249        0.11404
     241 -> 247        0.52056
     241 -> 249        0.24623
     241 -> 250       -0.17896
     242 -> 247        0.13971
     244 -> 247        0.12242
     246 -> 248        0.15401

 The electronic state is 1-A.
 Alpha  occ. eigenvalues --  -46.88758 -19.25233 -19.25205 -19.20501 -19.19332
 Alpha  occ. eigenvalues --  -19.18697 -19.18063 -14.42735 -14.41671 -14.39394
 Alpha  occ. eigenvalues --  -14.39019 -10.39382 -10.38473 -10.35685 -10.35042
 Alpha  occ. eigenvalues --  -10.32795 -10.31781 -10.31239 -10.31048 -10.31033
 Alpha  occ. eigenvalues --  -10.31024 -10.30210 -10.29367 -10.29301 -10.29028
 Alpha  occ. eigenvalues --  -10.28582 -10.28553 -10.28332 -10.27957 -10.27745
 Alpha  occ. eigenvalues --  -10.27630 -10.27566 -10.27558 -10.27528 -10.27481
 Alpha  occ. eigenvalues --  -10.27403 -10.27120 -10.26770 -10.26756 -10.26697
 Alpha  occ. eigenvalues --  -10.26509 -10.26454 -10.26341 -10.26289 -10.26232
 Alpha  occ. eigenvalues --  -10.26117 -10.26116 -10.26109 -10.26106 -10.25910
 Alpha  occ. eigenvalues --  -10.25853 -10.25735 -10.25555 -10.25416 -10.25341
 Alpha  occ. eigenvalues --  -10.25257 -10.25127 -10.25048 -10.24986 -10.24949
 Alpha  occ. eigenvalues --  -10.24870 -10.24772 -10.24582 -10.24405 -10.24180
 Alpha  occ. eigenvalues --  -10.24139  -3.17290  -1.92205  -1.91730  -1.91600
 Alpha  occ. eigenvalues --   -1.18555  -1.16921  -1.11731  -1.09125  -1.08633
 Alpha  occ. eigenvalues --   -1.06724  -1.05704  -1.04198  -1.03717  -1.02943
 Alpha  occ. eigenvalues --   -0.92818  -0.90601  -0.90113  -0.89810  -0.89561
 Alpha  occ. eigenvalues --   -0.89141  -0.88404  -0.88017  -0.87212  -0.86818
 Alpha  occ. eigenvalues --   -0.86352  -0.85937  -0.84775  -0.84388  -0.83571
 Alpha  occ. eigenvalues --   -0.82707  -0.82067  -0.81302  -0.80851  -0.80402
 Alpha  occ. eigenvalues --   -0.79876  -0.78496  -0.77884  -0.77370  -0.76325
 Alpha  occ. eigenvalues --   -0.75800  -0.75408  -0.75090  -0.74720  -0.73930
 Alpha  occ. eigenvalues --   -0.73365  -0.72893  -0.72167  -0.71145  -0.70186
 Alpha  occ. eigenvalues --   -0.68721  -0.68474  -0.67499  -0.66789  -0.65757
 Alpha  occ. eigenvalues --   -0.65365  -0.65274  -0.65045  -0.64541  -0.63795
 Alpha  occ. eigenvalues --   -0.63515  -0.63373  -0.63221  -0.62058  -0.60525
 Alpha  occ. eigenvalues --   -0.60125  -0.59661  -0.59179  -0.58562  -0.58258
 Alpha  occ. eigenvalues --   -0.57833  -0.57497  -0.57047  -0.56631  -0.56444
 Alpha  occ. eigenvalues --   -0.55779  -0.55407  -0.55244  -0.54811  -0.54745
 Alpha  occ. eigenvalues --   -0.54218  -0.53552  -0.53339  -0.53212  -0.52982
 Alpha  occ. eigenvalues --   -0.52801  -0.52480  -0.52218  -0.51935  -0.51765
 Alpha  occ. eigenvalues --   -0.51676  -0.51489  -0.51309  -0.51186  -0.50735
 Alpha  occ. eigenvalues --   -0.50306  -0.50145  -0.49822  -0.49766  -0.49551
 Alpha  occ. eigenvalues --   -0.49395  -0.49312  -0.49038  -0.48938  -0.48888
 Alpha  occ. eigenvalues --   -0.48800  -0.48617  -0.48370  -0.48049  -0.47726
 Alpha  occ. eigenvalues --   -0.47643  -0.47468  -0.47144  -0.46989  -0.46722
 Alpha  occ. eigenvalues --   -0.46589  -0.46213  -0.46144  -0.45962  -0.45755
 Alpha  occ. eigenvalues --   -0.45503  -0.45333  -0.45251  -0.44986  -0.44634
 Alpha  occ. eigenvalues --   -0.44590  -0.44446  -0.44390  -0.44280  -0.44253
 Alpha  occ. eigenvalues --   -0.43936  -0.43841  -0.43772  -0.43598  -0.43340
 Alpha  occ. eigenvalues --   -0.43206  -0.42910  -0.42883  -0.42769  -0.42403
 Alpha  occ. eigenvalues --   -0.42259  -0.42138  -0.41697  -0.41608  -0.41569
 Alpha  occ. eigenvalues --   -0.41408  -0.41005  -0.40773  -0.40525  -0.40129
 Alpha  occ. eigenvalues --   -0.40006  -0.39889  -0.39674  -0.39257  -0.39222
 Alpha  occ. eigenvalues --   -0.38509  -0.38189  -0.38057  -0.38024  -0.37946
 Alpha  occ. eigenvalues --   -0.37393  -0.36929  -0.36838  -0.36680  -0.36395
 Alpha  occ. eigenvalues --   -0.35794  -0.35343  -0.34991  -0.34958  -0.34188
 Alpha  occ. eigenvalues --   -0.33914  -0.33598  -0.33252  -0.31760  -0.31141
 Alpha  occ. eigenvalues --   -0.30590  -0.30082  -0.29696  -0.29421  -0.24403
 Alpha  occ. eigenvalues --   -0.21562
 Alpha virt. eigenvalues --   -0.09033  -0.01306   0.00517   0.02354   0.02577
 Alpha virt. eigenvalues --    0.04873   0.04952   0.05496   0.06395   0.06835
 Alpha virt. eigenvalues --    0.07498   0.08424   0.08560   0.08843   0.09220

 Mulliken charges:
               1
     1  Mg   0.824000
     2  C   -0.048393
     3  C   -0.038863
     4  C   -0.086377
     5  C   -0.110606
     6  N   -0.263220
     7  C   -0.053317
     8  C    0.004038
     9  C   -0.050559
    10  C   -0.047615
    11  C    0.054141
    12  C    0.040674
    13  C    0.018303
    14  C    0.126073
    15  O   -0.252523
    16  O   -0.281191
    17  N   -0.421114
    18  C    0.204360
    19  C   -0.147066
    20  C   -0.037343
    21  C    0.129845
    22  C    0.123181
    23  C    0.021059
    24  O   -0.178038
    25  C    0.016495
    26  N   -0.272338
    27  C    0.033012
    28  C   -0.027990
    29  C    0.005990
    30  C    0.041234
    31  C    0.061598
    32  C   -0.002584
    33  C    0.031079
    34  N   -0.294526
    35  C    0.126696
    36  C   -0.209480
    37  C    0.060713
    38  C    0.101305
    39  C    0.135667
    40  C    0.013790
    41  O   -0.184360
    42  C    0.008892
    43  C    0.202423
    44  O   -0.196594
    45  O   -0.340724
    46  C    0.186271
    47  C    0.308058
    48  C   -0.127089
    49  C   -0.204018
    50  C    0.087083
    51  C    0.084926
    52  C   -0.006542
    53  C    0.053413
    54  C   -0.143282
    55  C    0.042368
    56  C    0.035919
    57  C    0.016022
    58  C    0.022061
    59  C   -0.152813
    60  C    0.076198
    61  C    0.025360
    62  C    0.038213
    63  C    0.008196
    64  C   -0.171852
    65  C    0.028691
    66  C    0.047492
    67  H   -0.032057
    68  H   -0.040738
    69  H   -0.033384
    70  H    0.004542
    71  H    0.029416
    72  H    0.026545
    73  H    0.024731
    74  H    0.025219
    75  H    0.031381
    76  H    0.006448
    77  H    0.043535
    78  H    0.042404
    79  H    0.036958
    80  H   -0.000197
    81  H    0.037576
    82  H    0.037470
    83  H    0.040589
    84  H    0.026495
    85  H    0.016454
    86  H    0.005035
    87  H    0.015598
    88  H    0.025510
    89  H    0.020952
    90  H    0.001216
    91  H    0.015304
    92  H    0.034780
    93  H    0.001436
    94  H    0.014556
    95  H    0.044792
    96  H    0.001662
    97  H    0.038854
    98  H    0.021026
    99  H    0.037244
   100  H    0.038445
   101  H    0.029768
   102  H    0.035376
   103  H    0.025098
   104  H   -0.007744
   105  H    0.027431
   106  H    0.016448
   107  H    0.017662
   108  H   -0.003467
   109  H    0.023754
   110  H    0.007477
   111  H    0.012424
   112  H    0.001887
   113  H   -0.002790
   114  H    0.002360
   115  H   -0.003601
   116  H    0.010818
   117  H   -0.006178
   118  H   -0.004847
   119  H    0.001705
   120  H    0.005112
   121  H    0.007498
   122  H   -0.000905
   123  H   -0.001617
   124  H   -0.003878
   125  H    0.007145
   126  H    0.017931
   127  H    0.004827
   128  H   -0.002518
   129  H    0.004934
   130  H    0.008902
   131  H    0.005495
   132  H    0.002593
   133  H   -0.008679
   134  H   -0.000555
   135  H    0.008115
   136  H    0.011522
   137  H    0.004298
   138  H    0.006156
   139  H    0.011626
   140  H   -0.005802
 Sum of Mulliken charges =  -0.00000

 Dipole moment (field-independent basis, Debye):
    X=              1.4641    Y=              6.4964    Z=             -1.3083  Tot=              6.7867
 Quadrupole moment (field-independent basis, Debye-Ang):
   XX=           -397.1773   YY=           -434.0802   ZZ=           -405.4272
   XY=            -44.7222   XZ=            -15.0816   YZ=            -29.2935

 Normal termination of Gaussian 16 at Thu Apr 28 19:51:57 2022.
