 Gaussian 16, Revision A.03,
 Gaussian 16:  ES64L-G16RevA.03 25-Dec-2016

 ---------------------------------
 #p PBE1PBE/Def2SVP td=(nstates=5)
 ---------------------------------

 ------------------------------------------------------
 step_1701_chromophore_26 TDDFT with PBE1PBE functional
 ------------------------------------------------------
 Symbolic Z-matrix:
 Charge =  0 Multiplicity = 1

                         Standard orientation:
 ---------------------------------------------------------------------
 Center     Atomic      Atomic             Coordinates (Angstroms)
 Number     Number       Type             X           Y           Z
 ---------------------------------------------------------------------
      1         12           0       -3.955486    1.095957    0.646436
      2          6           0       -4.956614   -2.252054    0.019195
      3          6           0       -2.084358    0.027126    3.221676
      4          6           0       -2.769212    4.146632    0.800971
      5          6           0       -5.470064    1.953013   -2.438111
      6          7           0       -3.578340   -0.915540    1.509552
      7          6           0       -3.980912   -2.109344    1.020550
      8          6           0       -3.339742   -3.215904    1.921054
      9          6           0       -2.395386   -2.552593    2.950014
     10          6           0       -2.721477   -1.057643    2.579691
     11          6           0       -2.791949   -2.853742    4.467578
     12          6           0       -2.855042   -4.369033    1.110399
     13          6           0       -1.846678   -3.983924   -0.079433
     14          6           0       -0.427819   -4.491042   -0.121618
     15          8           0        0.038816   -5.489569    0.415161
     16          8           0        0.299703   -3.651641   -0.775236
     17          7           0       -2.703918    2.008700    1.951648
     18          6           0       -2.012083    1.424982    2.978301
     19          6           0       -1.363201    2.406963    3.726772
     20          6           0       -1.635079    3.659333    3.126325
     21          6           0       -2.322680    3.334265    1.870690
     22          6           0       -0.657572    2.211441    5.059284
     23          6           0       -1.190462    5.089815    3.572458
     24          8           0       -0.549527    5.269159    4.569487
     25          6           0       -1.814287    6.382738    2.985018
     26          7           0       -4.042702    2.781090   -0.662042
     27          6           0       -3.501924    3.913120   -0.365116
     28          6           0       -3.816069    4.962014   -1.366554
     29          6           0       -4.712223    4.291570   -2.421584
     30          6           0       -4.802052    2.867189   -1.816536
     31          6           0       -4.522323    6.173707   -0.697056
     32          6           0       -4.274363    4.359289   -3.912427
     33          6           0       -3.594145    5.645583   -4.422159
     34          7           0       -5.086095    0.084868   -0.886851
     35          6           0       -5.659375    0.614218   -1.998603
     36          6           0       -6.360428   -0.449916   -2.720561
     37          6           0       -6.128221   -1.599833   -1.938797
     38          6           0       -5.347076   -1.229148   -0.863190
     39          6           0       -7.023849   -0.455436   -4.000580
     40          6           0       -6.362546   -3.018073   -1.824716
     41          8           0       -7.035019   -3.741588   -2.560213
     42          6           0       -5.703246   -3.538787   -0.485668
     43          6           0       -6.808751   -3.884974    0.409462
     44          8           0       -7.092403   -5.016151    0.765301
     45          8           0       -7.541005   -2.731617    0.609307
     46          6           0       -8.871287   -3.049201    1.078642
     47          6           0        1.731254   -3.904748   -1.007061
     48          6           0        2.267897   -2.877030   -1.957910
     49          6           0        3.489878   -2.233626   -1.976600
     50          6           0        4.548135   -2.489078   -0.945159
     51          6           0        3.978111   -1.381819   -3.145884
     52          6           0        3.985603    0.172769   -2.831183
     53          6           0        5.463902    0.707703   -3.070320
     54          6           0        6.059016    1.399905   -1.749128
     55          6           0        6.076725    2.913552   -1.961131
     56          6           0        7.502031    0.890875   -1.512991
     57          6           0        7.967372    1.113259   -0.036880
     58          6           0        7.908322   -0.196945    0.786545
     59          6           0        9.257925   -0.466816    1.549151
     60          6           0        9.092392   -1.436241    2.779874
     61          6           0       10.434946   -0.826359    0.567606
     62          6           0       11.686401   -0.036615    0.895163
     63          6           0       12.947676   -0.873200    0.350313
     64          6           0       14.083150   -0.016863   -0.358605
     65          6           0       13.615511    0.208306   -1.868014
     66          6           0       15.480846   -0.677172   -0.378021
     67          1           0       -1.460865   -0.439443    3.987275
     68          1           0       -2.272276    5.117477    0.850200
     69          1           0       -5.883936    2.245544   -3.405256
     70          1           0       -4.153830   -3.639264    2.509455
     71          1           0       -1.390825   -2.910505    2.725849
     72          1           0       -3.508684   -3.672122    4.537322
     73          1           0       -3.254053   -1.966225    4.898985
     74          1           0       -1.907623   -3.085950    5.062641
     75          1           0       -3.625937   -5.123154    0.955138
     76          1           0       -2.206999   -4.878411    1.824281
     77          1           0       -1.772677   -2.899836   -0.169980
     78          1           0       -2.349007   -4.344326   -0.976787
     79          1           0        0.223202    2.836722    5.206735
     80          1           0       -0.344069    1.168534    5.021251
     81          1           0       -1.293493    2.347576    5.933571
     82          1           0       -2.885642    6.269442    2.821215
     83          1           0       -1.320942    6.727579    2.076048
     84          1           0       -1.679351    7.197836    3.696402
     85          1           0       -2.880076    5.268334   -1.833288
     86          1           0       -5.743990    4.629608   -2.325059
     87          1           0       -3.812468    6.989613   -0.835076
     88          1           0       -4.663459    5.967936    0.363473
     89          1           0       -5.468831    6.501676   -1.126468
     90          1           0       -5.198626    4.414804   -4.486767
     91          1           0       -3.771481    3.454697   -4.255022
     92          1           0       -2.545014    5.433845   -4.627346
     93          1           0       -3.757959    6.390903   -3.642947
     94          1           0       -4.212073    6.028123   -5.234032
     95          1           0       -6.660279   -1.410091   -4.381267
     96          1           0       -6.643705    0.367552   -4.605036
     97          1           0       -8.100905   -0.357309   -3.864654
     98          1           0       -5.021440   -4.388482   -0.530306
     99          1           0       -9.197026   -3.841250    0.404676
    100          1           0       -9.516821   -2.171490    1.036077
    101          1           0       -8.880976   -3.475242    2.081911
    102          1           0        1.807648   -4.828261   -1.580939
    103          1           0        2.313903   -3.952908   -0.087734
    104          1           0        1.625192   -2.730272   -2.825267
    105          1           0        5.186689   -3.261184   -1.374187
    106          1           0        4.187030   -2.891872    0.001079
    107          1           0        5.100455   -1.553276   -0.862306
    108          1           0        3.165996   -1.405830   -3.872502
    109          1           0        4.926607   -1.797978   -3.485656
    110          1           0        3.758326    0.308313   -1.773214
    111          1           0        3.246784    0.768131   -3.366892
    112          1           0        5.390737    1.443183   -3.870639
    113          1           0        6.165845   -0.094798   -3.296389
    114          1           0        5.321815    1.239395   -0.961757
    115          1           0        5.257532    3.404733   -1.436493
    116          1           0        6.089745    3.297676   -2.981217
    117          1           0        6.920232    3.399741   -1.472232
    118          1           0        8.193922    1.520534   -2.072651
    119          1           0        7.645596   -0.160954   -1.757186
    120          1           0        7.242357    1.777044    0.435646
    121          1           0        8.950944    1.571489   -0.141144
    122          1           0        7.918257   -1.102483    0.179079
    123          1           0        6.996480   -0.254331    1.380455
    124          1           0        9.561826    0.524064    1.884465
    125          1           0        9.039099   -0.748494    3.622683
    126          1           0        9.905638   -2.149458    2.910116
    127          1           0        8.088113   -1.854101    2.708652
    128          1           0       10.160129   -0.563351   -0.453725
    129          1           0       10.662269   -1.888593    0.661168
    130          1           0       11.875511    0.078245    1.962233
    131          1           0       11.718024    0.905940    0.349997
    132          1           0       12.699913   -1.618874   -0.404710
    133          1           0       13.481417   -1.355653    1.168885
    134          1           0       14.311405    0.873055    0.227944
    135          1           0       12.587480   -0.122229   -2.010267
    136          1           0       14.285354   -0.231354   -2.606666
    137          1           0       13.598248    1.266059   -2.133866
    138          1           0       16.160094   -0.157191    0.298918
    139          1           0       15.888778   -0.767071   -1.384885
    140          1           0       15.377866   -1.669082    0.063331
 ---------------------------------------------------------------------

 SCF Done:  E(RPBE1PBE) =  -3005.33873832     A.U. after   15 cycles

 Excitation energies and oscillator strengths:

 Excited State   1:      Singlet-A      1.9043 eV  651.08 nm  f=0.4034  <S**2>=0.000
     245 -> 248       -0.16854
     246 -> 247        0.69481
     246 <- 247       -0.11238
 This state for optimization and/or second-order correction.
 Total Energy, E(TD-HF/TD-DFT) =  -3005.26875725
 Copying the excited state density for this state as the 1-particle RhoCI density.

 Excited State   2:      Singlet-A      2.2715 eV  545.81 nm  f=0.1197  <S**2>=0.000
     245 -> 247        0.65934
     246 -> 248        0.23744

 Excited State   3:      Singlet-A      2.9370 eV  422.15 nm  f=0.0015  <S**2>=0.000
     241 -> 247        0.12564
     242 -> 247        0.52532
     243 -> 247       -0.42752

 Excited State   4:      Singlet-A      2.9995 eV  413.35 nm  f=0.0049  <S**2>=0.000
     241 -> 247        0.61847
     242 -> 247       -0.22656
     243 -> 247       -0.11626

 Excited State   5:      Singlet-A      3.0253 eV  409.82 nm  f=0.0072  <S**2>=0.000
     240 -> 247        0.14350
     241 -> 247        0.22498
     242 -> 247        0.33733
     243 -> 247        0.53623

 The electronic state is 1-A.
 Alpha  occ. eigenvalues --  -46.92128 -19.25896 -19.25839 -19.20769 -19.19367
 Alpha  occ. eigenvalues --  -19.19085 -19.18366 -14.42136 -14.41190 -14.38971
 Alpha  occ. eigenvalues --  -14.38762 -10.36415 -10.35462 -10.32713 -10.32350
 Alpha  occ. eigenvalues --  -10.30157 -10.29389 -10.28934 -10.28502 -10.28464
 Alpha  occ. eigenvalues --  -10.28449 -10.27647 -10.27277 -10.27206 -10.26785
 Alpha  occ. eigenvalues --  -10.26387 -10.26238 -10.25854 -10.25706 -10.25388
 Alpha  occ. eigenvalues --  -10.25384 -10.25361 -10.25350 -10.25097 -10.25093
 Alpha  occ. eigenvalues --  -10.25056 -10.24930 -10.24421 -10.24384 -10.24226
 Alpha  occ. eigenvalues --  -10.24180 -10.23923 -10.23907 -10.23828 -10.23760
 Alpha  occ. eigenvalues --  -10.23691 -10.23648 -10.23605 -10.23458 -10.23447
 Alpha  occ. eigenvalues --  -10.23443 -10.23266 -10.23109 -10.23012 -10.22869
 Alpha  occ. eigenvalues --  -10.22862 -10.22681 -10.22620 -10.22583 -10.22514
 Alpha  occ. eigenvalues --  -10.22404 -10.22148 -10.22122 -10.21991 -10.21784
 Alpha  occ. eigenvalues --  -10.21532  -3.14241  -1.87097  -1.86599  -1.86474
 Alpha  occ. eigenvalues --   -1.13402  -1.11689  -1.06348  -1.04005  -1.03486
 Alpha  occ. eigenvalues --   -1.01578  -1.00330  -0.98937  -0.98300  -0.97552
 Alpha  occ. eigenvalues --   -0.87244  -0.84709  -0.84469  -0.84003  -0.83671
 Alpha  occ. eigenvalues --   -0.83443  -0.82491  -0.82327  -0.81653  -0.80915
 Alpha  occ. eigenvalues --   -0.80536  -0.80128  -0.79060  -0.78642  -0.77742
 Alpha  occ. eigenvalues --   -0.76980  -0.76320  -0.75487  -0.75075  -0.74625
 Alpha  occ. eigenvalues --   -0.74014  -0.72806  -0.72199  -0.71557  -0.70603
 Alpha  occ. eigenvalues --   -0.69936  -0.69721  -0.69171  -0.68843  -0.68085
 Alpha  occ. eigenvalues --   -0.67722  -0.67345  -0.66549  -0.65429  -0.64590
 Alpha  occ. eigenvalues --   -0.63193  -0.62859  -0.61887  -0.61004  -0.60246
 Alpha  occ. eigenvalues --   -0.59779  -0.59645  -0.59392  -0.59047  -0.58138
 Alpha  occ. eigenvalues --   -0.57832  -0.57763  -0.57470  -0.56260  -0.55017
 Alpha  occ. eigenvalues --   -0.54485  -0.54234  -0.53741  -0.53077  -0.52852
 Alpha  occ. eigenvalues --   -0.52309  -0.51852  -0.51515  -0.51151  -0.50925
 Alpha  occ. eigenvalues --   -0.50306  -0.49872  -0.49790  -0.49380  -0.49107
 Alpha  occ. eigenvalues --   -0.48784  -0.48064  -0.47922  -0.47753  -0.47571
 Alpha  occ. eigenvalues --   -0.47361  -0.47017  -0.46694  -0.46405  -0.46248
 Alpha  occ. eigenvalues --   -0.46137  -0.45978  -0.45897  -0.45821  -0.45271
 Alpha  occ. eigenvalues --   -0.44806  -0.44682  -0.44344  -0.44263  -0.44144
 Alpha  occ. eigenvalues --   -0.43996  -0.43951  -0.43646  -0.43541  -0.43488
 Alpha  occ. eigenvalues --   -0.43433  -0.43312  -0.42936  -0.42713  -0.42325
 Alpha  occ. eigenvalues --   -0.42246  -0.42080  -0.41783  -0.41661  -0.41432
 Alpha  occ. eigenvalues --   -0.41201  -0.40904  -0.40829  -0.40582  -0.40421
 Alpha  occ. eigenvalues --   -0.40118  -0.39984  -0.39934  -0.39770  -0.39418
 Alpha  occ. eigenvalues --   -0.39374  -0.39249  -0.39117  -0.39078  -0.38859
 Alpha  occ. eigenvalues --   -0.38705  -0.38616  -0.38515  -0.38340  -0.38174
 Alpha  occ. eigenvalues --   -0.38024  -0.37658  -0.37567  -0.37523  -0.37300
 Alpha  occ. eigenvalues --   -0.37053  -0.36908  -0.36556  -0.36434  -0.36388
 Alpha  occ. eigenvalues --   -0.36133  -0.35803  -0.35648  -0.35291  -0.35039
 Alpha  occ. eigenvalues --   -0.34815  -0.34728  -0.34425  -0.34167  -0.34008
 Alpha  occ. eigenvalues --   -0.33272  -0.33178  -0.33012  -0.32830  -0.32713
 Alpha  occ. eigenvalues --   -0.32420  -0.31891  -0.31688  -0.31618  -0.31455
 Alpha  occ. eigenvalues --   -0.30652  -0.30293  -0.29945  -0.29880  -0.29401
 Alpha  occ. eigenvalues --   -0.29128  -0.28890  -0.28008  -0.27273  -0.25938
 Alpha  occ. eigenvalues --   -0.25665  -0.25364  -0.25265  -0.25011  -0.21288
 Alpha  occ. eigenvalues --   -0.19150
 Alpha virt. eigenvalues --   -0.11467  -0.04841  -0.03777  -0.02088  -0.00168
 Alpha virt. eigenvalues --    0.00249   0.00540   0.01545   0.02149   0.02777
 Alpha virt. eigenvalues --    0.03631   0.04691   0.04887   0.05283   0.05996

 Mulliken charges:
               1
     1  Mg   0.970468
     2  C   -0.050502
     3  C   -0.038027
     4  C   -0.087823
     5  C   -0.095197
     6  N   -0.370918
     7  C    0.019914
     8  C   -0.057499
     9  C   -0.133185
    10  C   -0.004330
    11  C   -0.001026
    12  C   -0.015945
    13  C   -0.058043
    14  C    0.200648
    15  O   -0.288501
    16  O   -0.315151
    17  N   -0.532828
    18  C    0.220615
    19  C   -0.180030
    20  C   -0.080391
    21  C    0.157482
    22  C    0.068913
    23  C    0.078327
    24  O   -0.212658
    25  C   -0.065232
    26  N   -0.384805
    27  C    0.078533
    28  C   -0.114810
    29  C   -0.062881
    30  C    0.077274
    31  C    0.004776
    32  C   -0.065474
    33  C   -0.044266
    34  N   -0.425388
    35  C    0.156721
    36  C   -0.227430
    37  C    0.014883
    38  C    0.156386
    39  C    0.076078
    40  C    0.108137
    41  O   -0.228058
    42  C   -0.111794
    43  C    0.298732
    44  O   -0.234549
    45  O   -0.366635
    46  C    0.130079
    47  C    0.263140
    48  C   -0.137899
    49  C   -0.243851
    50  C    0.019369
    51  C    0.014572
    52  C   -0.063646
    53  C    0.002302
    54  C   -0.232148
    55  C   -0.010957
    56  C   -0.020907
    57  C   -0.049969
    58  C   -0.029566
    59  C   -0.233928
    60  C    0.013529
    61  C   -0.032443
    62  C   -0.027007
    63  C   -0.050239
    64  C   -0.258174
    65  C   -0.033461
    66  C   -0.011505
    67  H    0.000298
    68  H   -0.003522
    69  H   -0.001607
    70  H    0.045315
    71  H    0.065546
    72  H    0.052448
    73  H    0.052325
    74  H    0.052224
    75  H    0.060533
    76  H    0.042052
    77  H    0.077742
    78  H    0.075635
    79  H    0.063001
    80  H    0.027908
    81  H    0.063793
    82  H    0.064630
    83  H    0.065360
    84  H    0.054452
    85  H    0.054159
    86  H    0.043265
    87  H    0.042341
    88  H    0.054034
    89  H    0.046937
    90  H    0.034548
    91  H    0.047127
    92  H    0.062125
    93  H    0.032535
    94  H    0.042893
    95  H    0.073119
    96  H    0.031163
    97  H    0.068085
    98  H    0.058919
    99  H    0.059286
   100  H    0.060516
   101  H    0.052586
   102  H    0.063127
   103  H    0.050989
   104  H    0.022431
   105  H    0.056099
   106  H    0.043308
   107  H    0.051931
   108  H    0.030802
   109  H    0.054318
   110  H    0.040377
   111  H    0.043323
   112  H    0.034416
   113  H    0.028468
   114  H    0.038184
   115  H    0.024780
   116  H    0.036965
   117  H    0.021649
   118  H    0.028495
   119  H    0.031546
   120  H    0.039096
   121  H    0.038915
   122  H    0.032619
   123  H    0.029535
   124  H    0.036076
   125  H    0.035483
   126  H    0.044121
   127  H    0.032628
   128  H    0.032667
   129  H    0.037751
   130  H    0.041626
   131  H    0.038799
   132  H    0.034714
   133  H    0.025060
   134  H    0.036008
   135  H    0.035981
   136  H    0.037923
   137  H    0.032414
   138  H    0.033697
   139  H    0.038283
   140  H    0.021825
 Sum of Mulliken charges =  -0.00000

 Dipole moment (field-independent basis, Debye):
    X=              1.2212    Y=              6.4056    Z=             -1.6648  Tot=              6.7301
 Quadrupole moment (field-independent basis, Debye-Ang):
   XX=           -391.9334   YY=           -430.8519   ZZ=           -401.8388
   XY=            -44.9040   XZ=            -13.0778   YZ=            -30.9549

 Normal termination of Gaussian 16 at Thu Apr 28 20:10:37 2022.
