 Gaussian 16, Revision A.03,
 Gaussian 16:  ES64L-G16RevA.03 25-Dec-2016

 --------------------------------
 #p wB97XD/Def2SVP td=(nstates=5)
 --------------------------------

 -----------------------------------------------------
 step_1701_chromophore_26 TDDFT with wB97XD functional
 -----------------------------------------------------
 Symbolic Z-matrix:
 Charge =  0 Multiplicity = 1

                         Standard orientation:
 ---------------------------------------------------------------------
 Center     Atomic      Atomic             Coordinates (Angstroms)
 Number     Number       Type             X           Y           Z
 ---------------------------------------------------------------------
      1         12           0       -3.955486    1.095957    0.646436
      2          6           0       -4.956614   -2.252054    0.019195
      3          6           0       -2.084358    0.027126    3.221676
      4          6           0       -2.769212    4.146632    0.800971
      5          6           0       -5.470064    1.953013   -2.438111
      6          7           0       -3.578340   -0.915540    1.509552
      7          6           0       -3.980912   -2.109344    1.020550
      8          6           0       -3.339742   -3.215904    1.921054
      9          6           0       -2.395386   -2.552593    2.950014
     10          6           0       -2.721477   -1.057643    2.579691
     11          6           0       -2.791949   -2.853742    4.467578
     12          6           0       -2.855042   -4.369033    1.110399
     13          6           0       -1.846678   -3.983924   -0.079433
     14          6           0       -0.427819   -4.491042   -0.121618
     15          8           0        0.038816   -5.489569    0.415161
     16          8           0        0.299703   -3.651641   -0.775236
     17          7           0       -2.703918    2.008700    1.951648
     18          6           0       -2.012083    1.424982    2.978301
     19          6           0       -1.363201    2.406963    3.726772
     20          6           0       -1.635079    3.659333    3.126325
     21          6           0       -2.322680    3.334265    1.870690
     22          6           0       -0.657572    2.211441    5.059284
     23          6           0       -1.190462    5.089815    3.572458
     24          8           0       -0.549527    5.269159    4.569487
     25          6           0       -1.814287    6.382738    2.985018
     26          7           0       -4.042702    2.781090   -0.662042
     27          6           0       -3.501924    3.913120   -0.365116
     28          6           0       -3.816069    4.962014   -1.366554
     29          6           0       -4.712223    4.291570   -2.421584
     30          6           0       -4.802052    2.867189   -1.816536
     31          6           0       -4.522323    6.173707   -0.697056
     32          6           0       -4.274363    4.359289   -3.912427
     33          6           0       -3.594145    5.645583   -4.422159
     34          7           0       -5.086095    0.084868   -0.886851
     35          6           0       -5.659375    0.614218   -1.998603
     36          6           0       -6.360428   -0.449916   -2.720561
     37          6           0       -6.128221   -1.599833   -1.938797
     38          6           0       -5.347076   -1.229148   -0.863190
     39          6           0       -7.023849   -0.455436   -4.000580
     40          6           0       -6.362546   -3.018073   -1.824716
     41          8           0       -7.035019   -3.741588   -2.560213
     42          6           0       -5.703246   -3.538787   -0.485668
     43          6           0       -6.808751   -3.884974    0.409462
     44          8           0       -7.092403   -5.016151    0.765301
     45          8           0       -7.541005   -2.731617    0.609307
     46          6           0       -8.871287   -3.049201    1.078642
     47          6           0        1.731254   -3.904748   -1.007061
     48          6           0        2.267897   -2.877030   -1.957910
     49          6           0        3.489878   -2.233626   -1.976600
     50          6           0        4.548135   -2.489078   -0.945159
     51          6           0        3.978111   -1.381819   -3.145884
     52          6           0        3.985603    0.172769   -2.831183
     53          6           0        5.463902    0.707703   -3.070320
     54          6           0        6.059016    1.399905   -1.749128
     55          6           0        6.076725    2.913552   -1.961131
     56          6           0        7.502031    0.890875   -1.512991
     57          6           0        7.967372    1.113259   -0.036880
     58          6           0        7.908322   -0.196945    0.786545
     59          6           0        9.257925   -0.466816    1.549151
     60          6           0        9.092392   -1.436241    2.779874
     61          6           0       10.434946   -0.826359    0.567606
     62          6           0       11.686401   -0.036615    0.895163
     63          6           0       12.947676   -0.873200    0.350313
     64          6           0       14.083150   -0.016863   -0.358605
     65          6           0       13.615511    0.208306   -1.868014
     66          6           0       15.480846   -0.677172   -0.378021
     67          1           0       -1.460865   -0.439443    3.987275
     68          1           0       -2.272276    5.117477    0.850200
     69          1           0       -5.883936    2.245544   -3.405256
     70          1           0       -4.153830   -3.639264    2.509455
     71          1           0       -1.390825   -2.910505    2.725849
     72          1           0       -3.508684   -3.672122    4.537322
     73          1           0       -3.254053   -1.966225    4.898985
     74          1           0       -1.907623   -3.085950    5.062641
     75          1           0       -3.625937   -5.123154    0.955138
     76          1           0       -2.206999   -4.878411    1.824281
     77          1           0       -1.772677   -2.899836   -0.169980
     78          1           0       -2.349007   -4.344326   -0.976787
     79          1           0        0.223202    2.836722    5.206735
     80          1           0       -0.344069    1.168534    5.021251
     81          1           0       -1.293493    2.347576    5.933571
     82          1           0       -2.885642    6.269442    2.821215
     83          1           0       -1.320942    6.727579    2.076048
     84          1           0       -1.679351    7.197836    3.696402
     85          1           0       -2.880076    5.268334   -1.833288
     86          1           0       -5.743990    4.629608   -2.325059
     87          1           0       -3.812468    6.989613   -0.835076
     88          1           0       -4.663459    5.967936    0.363473
     89          1           0       -5.468831    6.501676   -1.126468
     90          1           0       -5.198626    4.414804   -4.486767
     91          1           0       -3.771481    3.454697   -4.255022
     92          1           0       -2.545014    5.433845   -4.627346
     93          1           0       -3.757959    6.390903   -3.642947
     94          1           0       -4.212073    6.028123   -5.234032
     95          1           0       -6.660279   -1.410091   -4.381267
     96          1           0       -6.643705    0.367552   -4.605036
     97          1           0       -8.100905   -0.357309   -3.864654
     98          1           0       -5.021440   -4.388482   -0.530306
     99          1           0       -9.197026   -3.841250    0.404676
    100          1           0       -9.516821   -2.171490    1.036077
    101          1           0       -8.880976   -3.475242    2.081911
    102          1           0        1.807648   -4.828261   -1.580939
    103          1           0        2.313903   -3.952908   -0.087734
    104          1           0        1.625192   -2.730272   -2.825267
    105          1           0        5.186689   -3.261184   -1.374187
    106          1           0        4.187030   -2.891872    0.001079
    107          1           0        5.100455   -1.553276   -0.862306
    108          1           0        3.165996   -1.405830   -3.872502
    109          1           0        4.926607   -1.797978   -3.485656
    110          1           0        3.758326    0.308313   -1.773214
    111          1           0        3.246784    0.768131   -3.366892
    112          1           0        5.390737    1.443183   -3.870639
    113          1           0        6.165845   -0.094798   -3.296389
    114          1           0        5.321815    1.239395   -0.961757
    115          1           0        5.257532    3.404733   -1.436493
    116          1           0        6.089745    3.297676   -2.981217
    117          1           0        6.920232    3.399741   -1.472232
    118          1           0        8.193922    1.520534   -2.072651
    119          1           0        7.645596   -0.160954   -1.757186
    120          1           0        7.242357    1.777044    0.435646
    121          1           0        8.950944    1.571489   -0.141144
    122          1           0        7.918257   -1.102483    0.179079
    123          1           0        6.996480   -0.254331    1.380455
    124          1           0        9.561826    0.524064    1.884465
    125          1           0        9.039099   -0.748494    3.622683
    126          1           0        9.905638   -2.149458    2.910116
    127          1           0        8.088113   -1.854101    2.708652
    128          1           0       10.160129   -0.563351   -0.453725
    129          1           0       10.662269   -1.888593    0.661168
    130          1           0       11.875511    0.078245    1.962233
    131          1           0       11.718024    0.905940    0.349997
    132          1           0       12.699913   -1.618874   -0.404710
    133          1           0       13.481417   -1.355653    1.168885
    134          1           0       14.311405    0.873055    0.227944
    135          1           0       12.587480   -0.122229   -2.010267
    136          1           0       14.285354   -0.231354   -2.606666
    137          1           0       13.598248    1.266059   -2.133866
    138          1           0       16.160094   -0.157191    0.298918
    139          1           0       15.888778   -0.767071   -1.384885
    140          1           0       15.377866   -1.669082    0.063331
 ---------------------------------------------------------------------

 SCF Done:  E(RwB97XD) =  -3007.84983983     A.U. after   17 cycles

 Excitation energies and oscillator strengths:

 Excited State   1:      Singlet-A      1.7053 eV  727.07 nm  f=0.4161  <S**2>=0.000
     245 -> 248       -0.17731
     246 -> 247        0.68589
     245 <- 248       -0.11248
 This state for optimization and/or second-order correction.
 Total Energy, E(TD-HF/TD-DFT) =  -3007.78717260
 Copying the excited state density for this state as the 1-particle RhoCI density.

 Excited State   2:      Singlet-A      2.2317 eV  555.57 nm  f=0.1285  <S**2>=0.000
     245 -> 247        0.64920
     246 -> 248        0.26102

 Excited State   3:      Singlet-A      3.3061 eV  375.02 nm  f=0.0038  <S**2>=0.000
     241 -> 247       -0.16441
     242 -> 247        0.57184
     244 -> 247       -0.31516
     246 -> 248       -0.11606

 Excited State   4:      Singlet-A      3.4442 eV  359.98 nm  f=0.0132  <S**2>=0.000
     241 -> 247       -0.24295
     242 -> 247        0.21879
     244 -> 247        0.58430
     246 -> 248       -0.12506

 Excited State   5:      Singlet-A      3.5718 eV  347.11 nm  f=0.0231  <S**2>=0.000
     239 -> 247        0.10966
     241 -> 247        0.46603
     241 -> 249        0.25692
     241 -> 250       -0.19296
     242 -> 247        0.22796
     242 -> 249        0.12261
     244 -> 247        0.16178
     246 -> 248        0.14635

 The electronic state is 1-A.
 Alpha  occ. eigenvalues --  -46.95100 -19.30424 -19.30404 -19.25436 -19.24374
 Alpha  occ. eigenvalues --  -19.23726 -19.23008 -14.47365 -14.46234 -14.44039
 Alpha  occ. eigenvalues --  -14.43583 -10.43209 -10.42234 -10.39703 -10.39044
 Alpha  occ. eigenvalues --  -10.36670 -10.35873 -10.35154 -10.35043 -10.35032
 Alpha  occ. eigenvalues --  -10.34926 -10.34304 -10.33315 -10.33251 -10.33099
 Alpha  occ. eigenvalues --  -10.32734 -10.32588 -10.32529 -10.31888 -10.31744
 Alpha  occ. eigenvalues --  -10.31719 -10.31674 -10.31651 -10.31563 -10.31519
 Alpha  occ. eigenvalues --  -10.31311 -10.31157 -10.30748 -10.30672 -10.30627
 Alpha  occ. eigenvalues --  -10.30576 -10.30343 -10.30278 -10.30145 -10.30116
 Alpha  occ. eigenvalues --  -10.30114 -10.30045 -10.30039 -10.29920 -10.29870
 Alpha  occ. eigenvalues --  -10.29816 -10.29672 -10.29548 -10.29256 -10.29225
 Alpha  occ. eigenvalues --  -10.29212 -10.29061 -10.28991 -10.28933 -10.28883
 Alpha  occ. eigenvalues --  -10.28793 -10.28591 -10.28407 -10.28238 -10.28179
 Alpha  occ. eigenvalues --  -10.27948  -3.21070  -1.94675  -1.94179  -1.94048
 Alpha  occ. eigenvalues --   -1.20746  -1.19060  -1.13989  -1.11334  -1.10818
 Alpha  occ. eigenvalues --   -1.08894  -1.07695  -1.06200  -1.05785  -1.04991
 Alpha  occ. eigenvalues --   -0.94770  -0.92398  -0.91995  -0.91633  -0.91349
 Alpha  occ. eigenvalues --   -0.91031  -0.90174  -0.89967  -0.89130  -0.88593
 Alpha  occ. eigenvalues --   -0.88340  -0.87815  -0.86698  -0.86252  -0.85411
 Alpha  occ. eigenvalues --   -0.84595  -0.83956  -0.83168  -0.82809  -0.82339
 Alpha  occ. eigenvalues --   -0.81696  -0.80397  -0.79798  -0.79325  -0.78240
 Alpha  occ. eigenvalues --   -0.77632  -0.77362  -0.76873  -0.76539  -0.75763
 Alpha  occ. eigenvalues --   -0.75294  -0.74860  -0.74126  -0.73063  -0.72110
 Alpha  occ. eigenvalues --   -0.70648  -0.70430  -0.69536  -0.68655  -0.67769
 Alpha  occ. eigenvalues --   -0.67259  -0.67185  -0.66979  -0.66514  -0.65664
 Alpha  occ. eigenvalues --   -0.65424  -0.65180  -0.65176  -0.63896  -0.62485
 Alpha  occ. eigenvalues --   -0.62011  -0.61672  -0.61175  -0.60516  -0.60227
 Alpha  occ. eigenvalues --   -0.59766  -0.59366  -0.58978  -0.58572  -0.58349
 Alpha  occ. eigenvalues --   -0.57692  -0.57298  -0.57196  -0.56678  -0.56630
 Alpha  occ. eigenvalues --   -0.56155  -0.55453  -0.55247  -0.55138  -0.54891
 Alpha  occ. eigenvalues --   -0.54714  -0.54392  -0.54110  -0.53901  -0.53724
 Alpha  occ. eigenvalues --   -0.53611  -0.53358  -0.53192  -0.53090  -0.52616
 Alpha  occ. eigenvalues --   -0.52164  -0.52107  -0.51811  -0.51661  -0.51514
 Alpha  occ. eigenvalues --   -0.51303  -0.51201  -0.50930  -0.50825  -0.50783
 Alpha  occ. eigenvalues --   -0.50678  -0.50582  -0.50240  -0.49952  -0.49683
 Alpha  occ. eigenvalues --   -0.49520  -0.49357  -0.49068  -0.48925  -0.48664
 Alpha  occ. eigenvalues --   -0.48451  -0.48150  -0.48079  -0.47825  -0.47689
 Alpha  occ. eigenvalues --   -0.47445  -0.47193  -0.47142  -0.46878  -0.46544
 Alpha  occ. eigenvalues --   -0.46501  -0.46354  -0.46279  -0.46197  -0.46087
 Alpha  occ. eigenvalues --   -0.45782  -0.45745  -0.45669  -0.45575  -0.45231
 Alpha  occ. eigenvalues --   -0.45159  -0.44895  -0.44799  -0.44663  -0.44401
 Alpha  occ. eigenvalues --   -0.44190  -0.44014  -0.43607  -0.43510  -0.43488
 Alpha  occ. eigenvalues --   -0.43262  -0.42870  -0.42666  -0.42376  -0.42066
 Alpha  occ. eigenvalues --   -0.41880  -0.41804  -0.41517  -0.41153  -0.41071
 Alpha  occ. eigenvalues --   -0.40345  -0.40074  -0.39962  -0.39890  -0.39781
 Alpha  occ. eigenvalues --   -0.39469  -0.38949  -0.38740  -0.38644  -0.38301
 Alpha  occ. eigenvalues --   -0.37630  -0.37202  -0.36963  -0.36806  -0.36158
 Alpha  occ. eigenvalues --   -0.35838  -0.35767  -0.35148  -0.33933  -0.33152
 Alpha  occ. eigenvalues --   -0.32595  -0.32257  -0.31710  -0.31566  -0.26338
 Alpha  occ. eigenvalues --   -0.23379
 Alpha virt. eigenvalues --   -0.07381   0.00611   0.02565   0.04454   0.05696
 Alpha virt. eigenvalues --    0.07033   0.07196   0.08188   0.08862   0.09272
 Alpha virt. eigenvalues --    0.10219   0.11524   0.11706   0.11920   0.12728

 Mulliken charges:
               1
     1  Mg   0.961591
     2  C   -0.055956
     3  C   -0.052364
     4  C   -0.102754
     5  C   -0.114123
     6  N   -0.333655
     7  C   -0.013931
     8  C   -0.033903
     9  C   -0.109049
    10  C   -0.018006
    11  C    0.008952
    12  C   -0.002878
    13  C   -0.041122
    14  C    0.188760
    15  O   -0.284522
    16  O   -0.313090
    17  N   -0.505134
    18  C    0.217468
    19  C   -0.168362
    20  C   -0.075567
    21  C    0.155629
    22  C    0.080699
    23  C    0.070423
    24  O   -0.207979
    25  C   -0.049147
    26  N   -0.349026
    27  C    0.070121
    28  C   -0.090387
    29  C   -0.037786
    30  C    0.064448
    31  C    0.016577
    32  C   -0.051850
    33  C   -0.026608
    34  N   -0.383632
    35  C    0.142502
    36  C   -0.223773
    37  C    0.016225
    38  C    0.134022
    39  C    0.088992
    40  C    0.088742
    41  O   -0.219644
    42  C   -0.061659
    43  C    0.273220
    44  O   -0.229393
    45  O   -0.368733
    46  C    0.145378
    47  C    0.277387
    48  C   -0.147592
    49  C   -0.230666
    50  C    0.040023
    51  C    0.034864
    52  C   -0.048318
    53  C    0.016766
    54  C   -0.200682
    55  C   -0.002587
    56  C    0.000308
    57  C   -0.035067
    58  C   -0.012617
    59  C   -0.201328
    60  C    0.025486
    61  C   -0.016947
    62  C   -0.010917
    63  C   -0.030875
    64  C   -0.233467
    65  C   -0.019047
    66  C    0.000560
    67  H   -0.006948
    68  H   -0.018408
    69  H   -0.009191
    70  H    0.031830
    71  H    0.056589
    72  H    0.048017
    73  H    0.045394
    74  H    0.047553
    75  H    0.055770
    76  H    0.031805
    77  H    0.068181
    78  H    0.069216
    79  H    0.060708
    80  H    0.021455
    81  H    0.061276
    82  H    0.058424
    83  H    0.062452
    84  H    0.053294
    85  H    0.043331
    86  H    0.031675
    87  H    0.036610
    88  H    0.046014
    89  H    0.042834
    90  H    0.025804
    91  H    0.040269
    92  H    0.057244
    93  H    0.021822
    94  H    0.038002
    95  H    0.067012
    96  H    0.023815
    97  H    0.062643
    98  H    0.050032
    99  H    0.054070
   100  H    0.058025
   101  H    0.047985
   102  H    0.058748
   103  H    0.045761
   104  H    0.019702
   105  H    0.050057
   106  H    0.037706
   107  H    0.036272
   108  H    0.023376
   109  H    0.046752
   110  H    0.028006
   111  H    0.038604
   112  H    0.026244
   113  H    0.016934
   114  H    0.023898
   115  H    0.019468
   116  H    0.031464
   117  H    0.014194
   118  H    0.019832
   119  H    0.019853
   120  H    0.029691
   121  H    0.030162
   122  H    0.018621
   123  H    0.022866
   124  H    0.019576
   125  H    0.029483
   126  H    0.039518
   127  H    0.026298
   128  H    0.020072
   129  H    0.027866
   130  H    0.033824
   131  H    0.028977
   132  H    0.023305
   133  H    0.015952
   134  H    0.026159
   135  H    0.027588
   136  H    0.031815
   137  H    0.026433
   138  H    0.028524
   139  H    0.032105
   140  H    0.014689
 Sum of Mulliken charges =  -0.00000

 Dipole moment (field-independent basis, Debye):
    X=              1.5184    Y=              6.6874    Z=             -1.1847  Tot=              6.9592
 Quadrupole moment (field-independent basis, Debye-Ang):
   XX=           -393.7263   YY=           -430.1520   ZZ=           -401.0545
   XY=            -45.3660   XZ=            -14.9160   YZ=            -29.7570

 Normal termination of Gaussian 16 at Thu Apr 28 20:37:16 2022.
