 Gaussian 16, Revision A.03,
 Gaussian 16:  ES64L-G16RevA.03 25-Dec-2016

 --------------------
 #p ZINDO=(nstates=5)
 --------------------

 ------------------------------
 step_1701_chromophore_26 ZINDO
 ------------------------------
 Symbolic Z-matrix:
 Charge =  0 Multiplicity = 1

                         Standard orientation:
 ---------------------------------------------------------------------
 Center     Atomic      Atomic             Coordinates (Angstroms)
 Number     Number       Type             X           Y           Z
 ---------------------------------------------------------------------
      1         12           0       -3.955486    1.095957    0.646436
      2          6           0       -4.956614   -2.252054    0.019195
      3          6           0       -2.084358    0.027126    3.221676
      4          6           0       -2.769212    4.146632    0.800971
      5          6           0       -5.470064    1.953013   -2.438111
      6          7           0       -3.578340   -0.915540    1.509552
      7          6           0       -3.980912   -2.109344    1.020550
      8          6           0       -3.339742   -3.215904    1.921054
      9          6           0       -2.395386   -2.552593    2.950014
     10          6           0       -2.721477   -1.057643    2.579691
     11          6           0       -2.791949   -2.853742    4.467578
     12          6           0       -2.855042   -4.369033    1.110399
     13          6           0       -1.846678   -3.983924   -0.079433
     14          6           0       -0.427819   -4.491042   -0.121618
     15          8           0        0.038816   -5.489569    0.415161
     16          8           0        0.299703   -3.651641   -0.775236
     17          7           0       -2.703918    2.008700    1.951648
     18          6           0       -2.012083    1.424982    2.978301
     19          6           0       -1.363201    2.406963    3.726772
     20          6           0       -1.635079    3.659333    3.126325
     21          6           0       -2.322680    3.334265    1.870690
     22          6           0       -0.657572    2.211441    5.059284
     23          6           0       -1.190462    5.089815    3.572458
     24          8           0       -0.549527    5.269159    4.569487
     25          6           0       -1.814287    6.382738    2.985018
     26          7           0       -4.042702    2.781090   -0.662042
     27          6           0       -3.501924    3.913120   -0.365116
     28          6           0       -3.816069    4.962014   -1.366554
     29          6           0       -4.712223    4.291570   -2.421584
     30          6           0       -4.802052    2.867189   -1.816536
     31          6           0       -4.522323    6.173707   -0.697056
     32          6           0       -4.274363    4.359289   -3.912427
     33          6           0       -3.594145    5.645583   -4.422159
     34          7           0       -5.086095    0.084868   -0.886851
     35          6           0       -5.659375    0.614218   -1.998603
     36          6           0       -6.360428   -0.449916   -2.720561
     37          6           0       -6.128221   -1.599833   -1.938797
     38          6           0       -5.347076   -1.229148   -0.863190
     39          6           0       -7.023849   -0.455436   -4.000580
     40          6           0       -6.362546   -3.018073   -1.824716
     41          8           0       -7.035019   -3.741588   -2.560213
     42          6           0       -5.703246   -3.538787   -0.485668
     43          6           0       -6.808751   -3.884974    0.409462
     44          8           0       -7.092403   -5.016151    0.765301
     45          8           0       -7.541005   -2.731617    0.609307
     46          6           0       -8.871287   -3.049201    1.078642
     47          6           0        1.731254   -3.904748   -1.007061
     48          6           0        2.267897   -2.877030   -1.957910
     49          6           0        3.489878   -2.233626   -1.976600
     50          6           0        4.548135   -2.489078   -0.945159
     51          6           0        3.978111   -1.381819   -3.145884
     52          6           0        3.985603    0.172769   -2.831183
     53          6           0        5.463902    0.707703   -3.070320
     54          6           0        6.059016    1.399905   -1.749128
     55          6           0        6.076725    2.913552   -1.961131
     56          6           0        7.502031    0.890875   -1.512991
     57          6           0        7.967372    1.113259   -0.036880
     58          6           0        7.908322   -0.196945    0.786545
     59          6           0        9.257925   -0.466816    1.549151
     60          6           0        9.092392   -1.436241    2.779874
     61          6           0       10.434946   -0.826359    0.567606
     62          6           0       11.686401   -0.036615    0.895163
     63          6           0       12.947676   -0.873200    0.350313
     64          6           0       14.083150   -0.016863   -0.358605
     65          6           0       13.615511    0.208306   -1.868014
     66          6           0       15.480846   -0.677172   -0.378021
     67          1           0       -1.460865   -0.439443    3.987275
     68          1           0       -2.272276    5.117477    0.850200
     69          1           0       -5.883936    2.245544   -3.405256
     70          1           0       -4.153830   -3.639264    2.509455
     71          1           0       -1.390825   -2.910505    2.725849
     72          1           0       -3.508684   -3.672122    4.537322
     73          1           0       -3.254053   -1.966225    4.898985
     74          1           0       -1.907623   -3.085950    5.062641
     75          1           0       -3.625937   -5.123154    0.955138
     76          1           0       -2.206999   -4.878411    1.824281
     77          1           0       -1.772677   -2.899836   -0.169980
     78          1           0       -2.349007   -4.344326   -0.976787
     79          1           0        0.223202    2.836722    5.206735
     80          1           0       -0.344069    1.168534    5.021251
     81          1           0       -1.293493    2.347576    5.933571
     82          1           0       -2.885642    6.269442    2.821215
     83          1           0       -1.320942    6.727579    2.076048
     84          1           0       -1.679351    7.197836    3.696402
     85          1           0       -2.880076    5.268334   -1.833288
     86          1           0       -5.743990    4.629608   -2.325059
     87          1           0       -3.812468    6.989613   -0.835076
     88          1           0       -4.663459    5.967936    0.363473
     89          1           0       -5.468831    6.501676   -1.126468
     90          1           0       -5.198626    4.414804   -4.486767
     91          1           0       -3.771481    3.454697   -4.255022
     92          1           0       -2.545014    5.433845   -4.627346
     93          1           0       -3.757959    6.390903   -3.642947
     94          1           0       -4.212073    6.028123   -5.234032
     95          1           0       -6.660279   -1.410091   -4.381267
     96          1           0       -6.643705    0.367552   -4.605036
     97          1           0       -8.100905   -0.357309   -3.864654
     98          1           0       -5.021440   -4.388482   -0.530306
     99          1           0       -9.197026   -3.841250    0.404676
    100          1           0       -9.516821   -2.171490    1.036077
    101          1           0       -8.880976   -3.475242    2.081911
    102          1           0        1.807648   -4.828261   -1.580939
    103          1           0        2.313903   -3.952908   -0.087734
    104          1           0        1.625192   -2.730272   -2.825267
    105          1           0        5.186689   -3.261184   -1.374187
    106          1           0        4.187030   -2.891872    0.001079
    107          1           0        5.100455   -1.553276   -0.862306
    108          1           0        3.165996   -1.405830   -3.872502
    109          1           0        4.926607   -1.797978   -3.485656
    110          1           0        3.758326    0.308313   -1.773214
    111          1           0        3.246784    0.768131   -3.366892
    112          1           0        5.390737    1.443183   -3.870639
    113          1           0        6.165845   -0.094798   -3.296389
    114          1           0        5.321815    1.239395   -0.961757
    115          1           0        5.257532    3.404733   -1.436493
    116          1           0        6.089745    3.297676   -2.981217
    117          1           0        6.920232    3.399741   -1.472232
    118          1           0        8.193922    1.520534   -2.072651
    119          1           0        7.645596   -0.160954   -1.757186
    120          1           0        7.242357    1.777044    0.435646
    121          1           0        8.950944    1.571489   -0.141144
    122          1           0        7.918257   -1.102483    0.179079
    123          1           0        6.996480   -0.254331    1.380455
    124          1           0        9.561826    0.524064    1.884465
    125          1           0        9.039099   -0.748494    3.622683
    126          1           0        9.905638   -2.149458    2.910116
    127          1           0        8.088113   -1.854101    2.708652
    128          1           0       10.160129   -0.563351   -0.453725
    129          1           0       10.662269   -1.888593    0.661168
    130          1           0       11.875511    0.078245    1.962233
    131          1           0       11.718024    0.905940    0.349997
    132          1           0       12.699913   -1.618874   -0.404710
    133          1           0       13.481417   -1.355653    1.168885
    134          1           0       14.311405    0.873055    0.227944
    135          1           0       12.587480   -0.122229   -2.010267
    136          1           0       14.285354   -0.231354   -2.606666
    137          1           0       13.598248    1.266059   -2.133866
    138          1           0       16.160094   -0.157191    0.298918
    139          1           0       15.888778   -0.767071   -1.384885
    140          1           0       15.377866   -1.669082    0.063331
 ---------------------------------------------------------------------

 SCF Done:  E(RZINDO/S) =  -474.492719217     A.U. after   19 cycles

 Excitation energies and oscillator strengths:

 Excited State   1:      Singlet-A      1.3161 eV  942.08 nm  f=0.6150  <S**2>=0.000
     175 ->178         0.17484
     176 ->177         0.66905
 This state for optimization and/or second-order correction.
 Total Energy, E(CIS/TDA) =  -474.444354429
 Copying the excited state density for this state as the 1-particle RhoCI density.

 Excited State   2:      Singlet-A      1.9859 eV  624.34 nm  f=0.0809  <S**2>=0.000
     175 ->177         0.56676
     176 ->178        -0.39042

 Excited State   3:      Singlet-A      2.9023 eV  427.19 nm  f=0.0041  <S**2>=0.000
     167 ->179        -0.14347
     167 ->180         0.11720
     168 ->177         0.27492
     168 ->179        -0.36854
     168 ->180         0.28899
     168 ->184        -0.13671
     168 ->186         0.20802
     171 ->177         0.15684

 Excited State   4:      Singlet-A      3.0116 eV  411.70 nm  f=0.0190  <S**2>=0.000
     170 ->177         0.28761
     170 ->178        -0.15992
     170 ->179         0.32437
     170 ->180         0.32157
     170 ->184        -0.10938
     170 ->186        -0.17164
     170 ->187         0.11974
     170 ->188        -0.12475
     170 ->203        -0.11786

 Excited State   5:      Singlet-A      3.0607 eV  405.08 nm  f=0.7944  <S**2>=0.000
     171 ->177         0.13600
     175 ->177         0.31294
     176 ->178         0.49095
     176 ->179        -0.26157
     176 ->180        -0.15515

 The electronic state is 1-A.
 Alpha  occ. eigenvalues --   -1.86319  -1.84415  -1.81714  -1.76657  -1.74751
 Alpha  occ. eigenvalues --   -1.72501  -1.64889  -1.60898  -1.59781  -1.56903
 Alpha  occ. eigenvalues --   -1.54204  -1.50900  -1.49807  -1.48254  -1.47629
 Alpha  occ. eigenvalues --   -1.46302  -1.43737  -1.42772  -1.38909  -1.38066
 Alpha  occ. eigenvalues --   -1.36414  -1.35372  -1.32935  -1.31346  -1.30166
 Alpha  occ. eigenvalues --   -1.28084  -1.27103  -1.23102  -1.22028  -1.18463
 Alpha  occ. eigenvalues --   -1.16963  -1.15575  -1.14688  -1.14074  -1.12568
 Alpha  occ. eigenvalues --   -1.12514  -1.10316  -1.10073  -1.05098  -1.04094
 Alpha  occ. eigenvalues --   -1.02981  -1.01274  -1.00571  -0.99089  -0.97124
 Alpha  occ. eigenvalues --   -0.95989  -0.94287  -0.92870  -0.92254  -0.91755
 Alpha  occ. eigenvalues --   -0.91402  -0.90720  -0.88845  -0.88424  -0.85765
 Alpha  occ. eigenvalues --   -0.85511  -0.84414  -0.83666  -0.82605  -0.82179
 Alpha  occ. eigenvalues --   -0.80438  -0.78545  -0.77945  -0.77629  -0.77296
 Alpha  occ. eigenvalues --   -0.76997  -0.75894  -0.75274  -0.74739  -0.73865
 Alpha  occ. eigenvalues --   -0.73171  -0.72841  -0.72341  -0.71749  -0.70790
 Alpha  occ. eigenvalues --   -0.70588  -0.69577  -0.69333  -0.68691  -0.68201
 Alpha  occ. eigenvalues --   -0.67794  -0.67175  -0.66348  -0.66139  -0.65842
 Alpha  occ. eigenvalues --   -0.65140  -0.64641  -0.64426  -0.64188  -0.63547
 Alpha  occ. eigenvalues --   -0.63241  -0.62824  -0.62642  -0.62482  -0.62212
 Alpha  occ. eigenvalues --   -0.61988  -0.61515  -0.60787  -0.60209  -0.59089
 Alpha  occ. eigenvalues --   -0.58971  -0.58566  -0.58465  -0.58464  -0.58189
 Alpha  occ. eigenvalues --   -0.57868  -0.57704  -0.57429  -0.56854  -0.56619
 Alpha  occ. eigenvalues --   -0.56539  -0.55850  -0.55838  -0.55552  -0.54964
 Alpha  occ. eigenvalues --   -0.54755  -0.54535  -0.54190  -0.53771  -0.53380
 Alpha  occ. eigenvalues --   -0.53146  -0.52497  -0.52404  -0.52156  -0.51769
 Alpha  occ. eigenvalues --   -0.51610  -0.51222  -0.50851  -0.50690  -0.50427
 Alpha  occ. eigenvalues --   -0.49824  -0.49725  -0.49643  -0.49558  -0.49450
 Alpha  occ. eigenvalues --   -0.49231  -0.48627  -0.48535  -0.48300  -0.48069
 Alpha  occ. eigenvalues --   -0.47948  -0.47799  -0.47340  -0.47074  -0.46831
 Alpha  occ. eigenvalues --   -0.46519  -0.46199  -0.45895  -0.45859  -0.45626
 Alpha  occ. eigenvalues --   -0.45101  -0.44996  -0.44734  -0.44421  -0.44342
 Alpha  occ. eigenvalues --   -0.43915  -0.43647  -0.42686  -0.42534  -0.42171
 Alpha  occ. eigenvalues --   -0.41863  -0.41675  -0.41668  -0.39669  -0.38466
 Alpha  occ. eigenvalues --   -0.38302  -0.37082  -0.36272  -0.35590  -0.34719
 Alpha  occ. eigenvalues --   -0.34015  -0.33089  -0.31891  -0.31847  -0.27273
 Alpha  occ. eigenvalues --   -0.22542
 Alpha virt. eigenvalues --   -0.09035  -0.02206  -0.00679   0.00883   0.01738
 Alpha virt. eigenvalues --    0.02626   0.02843   0.03118   0.04183   0.04250
 Alpha virt. eigenvalues --    0.06006   0.06525   0.06730   0.07457   0.08019

 Mulliken charges:
               1
     1  Mg   0.422266
     2  C   -0.036003
     3  C   -0.073893
     4  C   -0.108213
     5  C   -0.046334
     6  N   -0.268691
     7  C    0.093557
     8  C    0.006253
     9  C    0.002991
    10  C    0.139478
    11  C   -0.051272
    12  C   -0.031541
    13  C    0.001157
    14  C    0.482321
    15  O   -0.545963
    16  O   -0.253595
    17  N   -0.341449
    18  C    0.141429
    19  C    0.056361
    20  C   -0.042648
    21  C    0.139771
    22  C   -0.039707
    23  C    0.318946
    24  O   -0.493368
    25  C   -0.027439
    26  N   -0.268788
    27  C    0.197607
    28  C    0.011948
    29  C   -0.009955
    30  C    0.085789
    31  C   -0.053050
    32  C   -0.035860
    33  C   -0.061775
    34  N   -0.317050
    35  C    0.065763
    36  C    0.011399
    37  C   -0.064361
    38  C    0.099848
    39  C   -0.037391
    40  C    0.335082
    41  O   -0.530409
    42  C    0.051378
    43  C    0.494603
    44  O   -0.515863
    45  O   -0.266535
    46  C    0.071944
    47  C    0.112944
    48  C   -0.101871
    49  C   -0.012355
    50  C   -0.045558
    51  C   -0.024421
    52  C   -0.039850
    53  C   -0.053033
    54  C   -0.013889
    55  C   -0.058378
    56  C   -0.036515
    57  C   -0.042607
    58  C   -0.039998
    59  C   -0.027343
    60  C   -0.061330
    61  C   -0.029757
    62  C   -0.034513
    63  C   -0.050579
    64  C   -0.025185
    65  C   -0.061546
    66  C   -0.062124
    67  H    0.021650
    68  H    0.011564
    69  H    0.026266
    70  H    0.024922
    71  H    0.047658
    72  H    0.029488
    73  H    0.023686
    74  H    0.023057
    75  H    0.045862
    76  H    0.013000
    77  H    0.038438
    78  H    0.044772
    79  H    0.041781
    80  H    0.015986
    81  H    0.041529
    82  H    0.031262
    83  H    0.037161
    84  H    0.034620
    85  H    0.033974
    86  H    0.030385
    87  H    0.014861
    88  H    0.025962
    89  H    0.028118
    90  H    0.010700
    91  H    0.028575
    92  H    0.031552
    93  H    0.016611
    94  H    0.024343
    95  H    0.043201
    96  H    0.017272
    97  H    0.042475
    98  H    0.056577
    99  H    0.047164
   100  H    0.032600
   101  H    0.041100
   102  H    0.052480
   103  H    0.055059
   104  H    0.024786
   105  H    0.028876
   106  H    0.026922
   107  H    0.026707
   108  H    0.017643
   109  H    0.041213
   110  H    0.020172
   111  H    0.028592
   112  H    0.022709
   113  H    0.026144
   114  H    0.032667
   115  H    0.008542
   116  H    0.022605
   117  H    0.008494
   118  H    0.018600
   119  H    0.022844
   120  H    0.020480
   121  H    0.027365
   122  H    0.012793
   123  H    0.023159
   124  H    0.011522
   125  H    0.015230
   126  H    0.032141
   127  H    0.023337
   128  H    0.022180
   129  H    0.022169
   130  H    0.027726
   131  H    0.026534
   132  H    0.024315
   133  H    0.013903
   134  H    0.026009
   135  H    0.019188
   136  H    0.024778
   137  H    0.009536
   138  H    0.015620
   139  H    0.025093
   140  H    0.012858
 Sum of Mulliken charges =  -0.00000

 Dipole moment (field-independent basis, Debye):
    X=              3.5061    Y=              8.8905    Z=             -0.7954  Tot=              9.5899
 N-N= 4.459069601805D+03 E-N= 0.000000000000D+00  KE=-9.591763225379D+03
 Leave Link  601 at Thu Apr 28 20:51:52 2022, MaxMem=  6710886400 cpu:               0.8 elap:               0.1
 (Enter /sw/apps/gaussian-16.0/g16/l9999.exe)
 1\1\GINC-BP1-COMPUTE070\SP\RZINDO CIS\STO-3G\C55H74Mg1N4O6\OF15641\28-
 Apr-2022\0\\#p ZINDO=(nstates=5)\\step_1701_chromophore_26 ZINDO\\0,1\
 Mg,0,-8.876,18.45,42.117\C,0,-5.367,17.914,42.184\C,0,-8.345,21.65,41.
 249\C,0,-12.112,18.658,41.645\C,0,-9.252,14.942,42.426\N,0,-7.031,19.6
 34,41.76\C,0,-5.758,19.182,41.721\C,0,-4.854,20.387,41.3\C,0,-5.748,21
 .604,40.968\C,0,-7.122,20.956,41.381\C,0,-5.44,22.887,41.868\C,0,-3.79
 3,19.967,40.341\C,0,-4.327,19.204,39.032\C,0,-4.129,19.76,37.645\O,0,-

 Normal termination of Gaussian 16 at Thu Apr 28 20:51:52 2022.
