 Gaussian 16, Revision A.03,
 Gaussian 16:  ES64L-G16RevA.03 25-Dec-2016

 ------------------------------
 #p blyp/Def2SVP td=(nstates=5)
 ------------------------------

 --------------------------------------------------
 step_151_chromophore_22 TDDFT with blyp functional
 --------------------------------------------------
 Symbolic Z-matrix:
 Charge =  0 Multiplicity = 1

                         Standard orientation:
 ---------------------------------------------------------------------
 Center     Atomic      Atomic             Coordinates (Angstroms)
 Number     Number       Type             X           Y           Z
 ---------------------------------------------------------------------
      1         12           0       -6.023374    0.566865    0.060597
      2          6           0       -3.828807   -2.081461    0.691570
      3          6           0       -3.921064    2.680788    1.363813
      4          6           0       -8.204353    3.042432   -0.713298
      5          6           0       -8.488312   -1.876279   -0.834517
      6          7           0       -4.046049    0.296950    0.914583
      7          6           0       -3.380245   -0.834899    1.088183
      8          6           0       -2.171333   -0.463225    1.884037
      9          6           0       -2.569623    0.911903    2.572250
     10          6           0       -3.558327    1.329597    1.574773
     11          6           0       -3.208212    0.875605    3.994627
     12          6           0       -0.898988   -0.410008    0.937622
     13          6           0        0.357719   -0.687923    1.711763
     14          6           0        1.304968   -1.744867    1.219674
     15          8           0        1.151688   -2.944395    1.425825
     16          8           0        2.333687   -1.236303    0.373626
     17          7           0       -6.016118    2.629094    0.258803
     18          6           0       -5.080052    3.346181    0.843325
     19          6           0       -5.425011    4.681563    0.888761
     20          6           0       -6.663619    4.859166    0.171916
     21          6           0       -7.018079    3.485756   -0.140914
     22          6           0       -4.542239    5.798719    1.521045
     23          6           0       -7.503077    6.085713   -0.022795
     24          8           0       -8.649205    5.982787   -0.467078
     25          6           0       -6.924871    7.455514    0.233335
     26          7           0       -8.097799    0.632396   -0.646394
     27          6           0       -8.788947    1.809752   -0.883357
     28          6           0      -10.130521    1.481644   -1.559509
     29          6           0      -10.230713   -0.026410   -1.503405
     30          6           0       -8.826119   -0.462761   -0.985562
     31          6           0      -11.320156    2.176595   -0.867464
     32          6           0      -10.668178   -0.812284   -2.805987
     33          6           0      -11.440015   -2.131115   -2.604899
     34          7           0       -6.165452   -1.511655   -0.058422
     35          6           0       -7.209094   -2.336118   -0.348892
     36          6           0       -6.755352   -3.717190   -0.229502
     37          6           0       -5.411357   -3.651175    0.010019
     38          6           0       -5.072929   -2.313018    0.237343
     39          6           0       -7.579741   -5.026619   -0.339515
     40          6           0       -4.289466   -4.492125    0.254498
     41          8           0       -4.133328   -5.718992    0.181624
     42          6           0       -3.132041   -3.501733    0.672506
     43          6           0       -1.968808   -3.609298   -0.238105
     44          8           0       -1.842817   -3.018741   -1.323704
     45          8           0       -1.136788   -4.592200    0.291942
     46          6           0       -0.091114   -4.935326   -0.716932
     47          6           0        3.224386   -2.317765   -0.065823
     48          6           0        4.550013   -1.629921   -0.300477
     49          6           0        5.740907   -2.152703   -0.579176
     50          6           0        5.992825   -3.669123   -0.787458
     51          6           0        6.918812   -1.246870   -0.838392
     52          6           0        8.095606   -1.651206    0.074604
     53          6           0        8.410380   -0.520372    1.131417
     54          6           0        9.934879   -0.086439    0.988950
     55          6           0       10.581215    0.262854    2.327504
     56          6           0        9.998333    1.114151   -0.027186
     57          6           0       11.235749    1.079921   -0.950752
     58          6           0       11.445581    2.430024   -1.579341
     59          6           0       12.820264    2.452150   -2.388522
     60          6           0       12.562803    3.464213   -3.599286
     61          6           0       14.058684    2.817551   -1.485528
     62          6           0       15.281593    1.866306   -1.671858
     63          6           0       16.011983    1.505062   -0.331004
     64          6           0       15.429197    0.201272    0.411870
     65          6           0       14.916538    0.491995    1.746565
     66          6           0       16.337119   -0.988733    0.487139
     67          1           0       -3.396869    3.311655    2.084291
     68          1           0       -8.789767    3.792130   -1.248840
     69          1           0       -9.051791   -2.699994   -1.278624
     70          1           0       -2.060292   -1.275932    2.602127
     71          1           0       -1.671253    1.526243    2.529682
     72          1           0       -3.266785   -0.127273    4.418391
     73          1           0       -4.126123    1.454191    4.096016
     74          1           0       -2.616272    1.462816    4.697280
     75          1           0       -0.995207    0.556301    0.440927
     76          1           0       -1.034984   -1.180299    0.178621
     77          1           0        0.056053   -0.931414    2.731139
     78          1           0        1.002064    0.190589    1.743835
     79          1           0       -3.678814    5.326070    1.990520
     80          1           0       -5.063323    6.315993    2.326962
     81          1           0       -4.109016    6.376078    0.705211
     82          1           0       -5.958800    7.602179   -0.249774
     83          1           0       -6.914191    7.471605    1.323049
     84          1           0       -7.597827    8.211215   -0.171818
     85          1           0      -10.032420    1.868939   -2.573409
     86          1           0      -10.785602   -0.356419   -0.625272
     87          1           0      -11.137645    2.188807    0.207394
     88          1           0      -12.135209    1.455910   -0.801680
     89          1           0      -11.526057    3.157255   -1.294928
     90          1           0       -9.870615   -1.026959   -3.517316
     91          1           0      -11.469882   -0.200793   -3.218520
     92          1           0      -12.201130   -2.215949   -3.379882
     93          1           0      -11.984860   -2.174042   -1.661593
     94          1           0      -10.791184   -3.004729   -2.541718
     95          1           0       -8.625965   -4.722831   -0.287227
     96          1           0       -7.347030   -5.808880    0.382867
     97          1           0       -7.456570   -5.481508   -1.322548
     98          1           0       -2.800099   -3.623429    1.703446
     99          1           0       -0.334237   -5.727908   -1.424728
    100          1           0        0.677703   -5.462782   -0.152013
    101          1           0        0.368982   -4.072915   -1.198901
    102          1           0        2.999226   -2.681071   -1.068150
    103          1           0        3.402822   -3.104885    0.667172
    104          1           0        4.519919   -0.540705   -0.269780
    105          1           0        5.125484   -4.279810   -1.035788
    106          1           0        6.400236   -4.133474    0.111612
    107          1           0        6.658924   -3.755005   -1.646024
    108          1           0        6.700723   -0.198063   -0.642306
    109          1           0        7.325228   -1.347065   -1.845532
    110          1           0        9.017482   -1.835245   -0.477111
    111          1           0        7.741730   -2.517828    0.631450
    112          1           0        8.245596   -0.908785    2.136306
    113          1           0        7.610737    0.218563    1.072139
    114          1           0       10.490556   -0.954518    0.634234
    115          1           0       11.094163   -0.594508    2.762120
    116          1           0        9.782232    0.474709    3.037818
    117          1           0       11.244939    1.128260    2.348188
    118          1           0        9.803974    2.050526    0.496224
    119          1           0        9.171284    1.057862   -0.735065
    120          1           0       10.931964    0.380876   -1.730073
    121          1           0       12.113699    0.744461   -0.399038
    122          1           0       11.451385    3.186600   -0.795162
    123          1           0       10.603301    2.683772   -2.223860
    124          1           0       12.976457    1.500931   -2.897101
    125          1           0       12.698205    2.901029   -4.522222
    126          1           0       13.348584    4.219664   -3.604468
    127          1           0       11.618443    3.999781   -3.700906
    128          1           0       13.755606    2.779672   -0.439378
    129          1           0       14.485156    3.799503   -1.690112
    130          1           0       16.047051    2.289371   -2.320960
    131          1           0       14.967028    0.948929   -2.169506
    132          1           0       15.955123    2.441289    0.224073
    133          1           0       17.085703    1.334441   -0.420300
    134          1           0       14.641519   -0.147042   -0.256030
    135          1           0       14.548651    1.514408    1.833491
    136          1           0       15.711687    0.410716    2.487179
    137          1           0       14.034561   -0.122042    1.931807
    138          1           0       17.250058   -0.916349    1.078447
    139          1           0       16.681348   -1.308659   -0.496409
    140          1           0       15.804002   -1.778112    1.017119
 ---------------------------------------------------------------------

 SCF Done:  E(RB-LYP) =  -3007.36634954     A.U. after   21 cycles

 Excitation energies and oscillator strengths:

 Excited State   1:      Singlet-A      1.8006 eV  688.58 nm  f=0.2103  <S**2>=0.000
     244 -> 247       -0.30011
     245 -> 247       -0.21407
     245 -> 248       -0.17573
     246 -> 247        0.58498
     246 <- 247       -0.12229
 This state for optimization and/or second-order correction.
 Total Energy, E(TD-HF/TD-DFT) =  -3007.30017921
 Copying the excited state density for this state as the 1-particle RhoCI density.

 Excited State   2:      Singlet-A      1.8383 eV  674.44 nm  f=0.1154  <S**2>=0.000
     244 -> 247        0.49089
     245 -> 247        0.33778
     245 -> 248       -0.10103
     246 -> 247        0.36022

 Excited State   3:      Singlet-A      2.0144 eV  615.50 nm  f=0.0525  <S**2>=0.000
     243 -> 247        0.18193
     244 -> 247       -0.39540
     245 -> 247        0.50469
     246 -> 248        0.21384

 Excited State   4:      Singlet-A      2.1129 eV  586.80 nm  f=0.0085  <S**2>=0.000
     243 -> 247        0.68094
     245 -> 247       -0.14232

 Excited State   5:      Singlet-A      2.3020 eV  538.61 nm  f=0.0001  <S**2>=0.000
     242 -> 247        0.70701

 The electronic state is 1-A.
 Alpha  occ. eigenvalues --  -46.26844 -18.82543 -18.82043 -18.77608 -18.76859
 Alpha  occ. eigenvalues --  -18.76168 -18.75133 -14.02886 -14.02752 -14.00823
 Alpha  occ. eigenvalues --  -14.00504 -10.04528 -10.03709  -9.99982  -9.99644
 Alpha  occ. eigenvalues --   -9.97814  -9.97029  -9.96302  -9.96124  -9.96119
 Alpha  occ. eigenvalues --   -9.95927  -9.95772  -9.95239  -9.94653  -9.94451
 Alpha  occ. eigenvalues --   -9.94204  -9.94114  -9.94061  -9.93797  -9.93729
 Alpha  occ. eigenvalues --   -9.93708  -9.93658  -9.93564  -9.93391  -9.93224
 Alpha  occ. eigenvalues --   -9.93181  -9.93151  -9.93145  -9.93051  -9.92632
 Alpha  occ. eigenvalues --   -9.92558  -9.92456  -9.92407  -9.92298  -9.92293
 Alpha  occ. eigenvalues --   -9.92184  -9.91986  -9.91934  -9.91871  -9.91569
 Alpha  occ. eigenvalues --   -9.91462  -9.91461  -9.91366  -9.91223  -9.91089
 Alpha  occ. eigenvalues --   -9.91063  -9.91057  -9.90972  -9.90940  -9.90919
 Alpha  occ. eigenvalues --   -9.90905  -9.90788  -9.90605  -9.90583  -9.90574
 Alpha  occ. eigenvalues --   -9.90231  -2.91439  -1.71895  -1.71286  -1.71167
 Alpha  occ. eigenvalues --   -0.97145  -0.96225  -0.90799  -0.90742  -0.89997
 Alpha  occ. eigenvalues --   -0.88876  -0.88628  -0.86652  -0.86001  -0.84922
 Alpha  occ. eigenvalues --   -0.75944  -0.73546  -0.73156  -0.72571  -0.72148
 Alpha  occ. eigenvalues --   -0.71965  -0.71839  -0.71126  -0.70493  -0.69882
 Alpha  occ. eigenvalues --   -0.69689  -0.69348  -0.68168  -0.67611  -0.67193
 Alpha  occ. eigenvalues --   -0.66688  -0.65826  -0.65073  -0.64688  -0.64561
 Alpha  occ. eigenvalues --   -0.63997  -0.62915  -0.62370  -0.61450  -0.60523
 Alpha  occ. eigenvalues --   -0.60261  -0.60188  -0.59915  -0.59072  -0.58810
 Alpha  occ. eigenvalues --   -0.58203  -0.57932  -0.57176  -0.56142  -0.54662
 Alpha  occ. eigenvalues --   -0.54368  -0.53211  -0.52894  -0.52346  -0.51527
 Alpha  occ. eigenvalues --   -0.51408  -0.50910  -0.50621  -0.50569  -0.50132
 Alpha  occ. eigenvalues --   -0.49835  -0.49338  -0.48866  -0.47680  -0.46917
 Alpha  occ. eigenvalues --   -0.46334  -0.46150  -0.45510  -0.44996  -0.44326
 Alpha  occ. eigenvalues --   -0.43975  -0.43825  -0.43035  -0.42704  -0.42362
 Alpha  occ. eigenvalues --   -0.42255  -0.42101  -0.41762  -0.41467  -0.40957
 Alpha  occ. eigenvalues --   -0.40761  -0.40575  -0.40406  -0.40300  -0.39837
 Alpha  occ. eigenvalues --   -0.39765  -0.39455  -0.39414  -0.39282  -0.39220
 Alpha  occ. eigenvalues --   -0.38876  -0.38654  -0.38375  -0.38247  -0.38162
 Alpha  occ. eigenvalues --   -0.38050  -0.37950  -0.37885  -0.37628  -0.37338
 Alpha  occ. eigenvalues --   -0.37267  -0.36970  -0.36748  -0.36452  -0.36295
 Alpha  occ. eigenvalues --   -0.36192  -0.36010  -0.35943  -0.35876  -0.35593
 Alpha  occ. eigenvalues --   -0.35309  -0.35166  -0.34942  -0.34912  -0.34459
 Alpha  occ. eigenvalues --   -0.34237  -0.34075  -0.33912  -0.33740  -0.33631
 Alpha  occ. eigenvalues --   -0.33313  -0.33136  -0.33022  -0.32994  -0.32941
 Alpha  occ. eigenvalues --   -0.32732  -0.32403  -0.32291  -0.32079  -0.31918
 Alpha  occ. eigenvalues --   -0.31833  -0.31659  -0.31642  -0.31478  -0.31311
 Alpha  occ. eigenvalues --   -0.31142  -0.31024  -0.30939  -0.30827  -0.30693
 Alpha  occ. eigenvalues --   -0.30396  -0.30191  -0.30059  -0.29993  -0.29859
 Alpha  occ. eigenvalues --   -0.29638  -0.29462  -0.29079  -0.29052  -0.28797
 Alpha  occ. eigenvalues --   -0.28739  -0.28621  -0.28255  -0.28074  -0.28045
 Alpha  occ. eigenvalues --   -0.28044  -0.27399  -0.27211  -0.27045  -0.26883
 Alpha  occ. eigenvalues --   -0.26616  -0.26279  -0.26168  -0.25676  -0.25308
 Alpha  occ. eigenvalues --   -0.25049  -0.24678  -0.24656  -0.23980  -0.23030
 Alpha  occ. eigenvalues --   -0.22887  -0.22194  -0.22069  -0.21813  -0.21025
 Alpha  occ. eigenvalues --   -0.20391  -0.20015  -0.19156  -0.18363  -0.17136
 Alpha  occ. eigenvalues --   -0.15884
 Alpha virt. eigenvalues --   -0.11556  -0.06986  -0.06629  -0.04488  -0.04152
 Alpha virt. eigenvalues --   -0.02962  -0.01184  -0.00678  -0.00570   0.00075
 Alpha virt. eigenvalues --    0.00801   0.01804   0.02046   0.02833   0.02881

 Mulliken charges:
               1
     1  Mg   0.686387
     2  C   -0.021276
     3  C   -0.019029
     4  C   -0.033117
     5  C   -0.062056
     6  N   -0.168235
     7  C   -0.102230
     8  C   -0.065596
     9  C    0.062753
    10  C   -0.062430
    11  C    0.146460
    12  C    0.121576
    13  C    0.204608
    14  C    0.071429
    15  O   -0.192273
    16  O   -0.298334
    17  N   -0.253657
    18  C    0.107011
    19  C   -0.157067
    20  C    0.052223
    21  C    0.091839
    22  C    0.180478
    23  C   -0.103118
    24  O   -0.177073
    25  C    0.152812
    26  N   -0.213478
    27  C   -0.034038
    28  C    0.041482
    29  C    0.050275
    30  C    0.006822
    31  C    0.152745
    32  C    0.107529
    33  C    0.043658
    34  N   -0.266452
    35  C    0.078026
    36  C   -0.192006
    37  C    0.130716
    38  C    0.104819
    39  C    0.164478
    40  C   -0.037669
    41  O   -0.135809
    42  C    0.083927
    43  C    0.154053
    44  O   -0.213707
    45  O   -0.261796
    46  C    0.222796
    47  C    0.344976
    48  C   -0.170270
    49  C   -0.133514
    50  C    0.130328
    51  C    0.156198
    52  C    0.045449
    53  C    0.089602
    54  C   -0.051868
    55  C    0.113625
    56  C    0.085417
    57  C    0.061133
    58  C    0.080703
    59  C   -0.047486
    60  C    0.083218
    61  C    0.129598
    62  C    0.035864
    63  C    0.079760
    64  C   -0.053950
    65  C    0.114116
    66  C    0.091630
    67  H   -0.064711
    68  H   -0.043543
    69  H   -0.059675
    70  H   -0.042218
    71  H   -0.035723
    72  H    0.004070
    73  H   -0.003424
    74  H   -0.019696
    75  H   -0.014906
    76  H    0.009410
    77  H   -0.004190
    78  H   -0.017230
    79  H   -0.036078
    80  H    0.006358
    81  H    0.010173
    82  H    0.010582
    83  H    0.007695
    84  H   -0.007698
    85  H   -0.019057
    86  H   -0.022225
    87  H   -0.025934
    88  H   -0.028030
    89  H    0.020030
    90  H   -0.004399
    91  H   -0.021003
    92  H   -0.008661
    93  H   -0.021419
    94  H    0.004671
    95  H   -0.017273
    96  H    0.016048
    97  H    0.005124
    98  H    0.000634
    99  H    0.011931
   100  H   -0.002616
   101  H    0.021931
   102  H    0.015047
   103  H    0.021037
   104  H   -0.038242
   105  H   -0.018767
   106  H    0.012346
   107  H   -0.007352
   108  H   -0.029095
   109  H   -0.031102
   110  H   -0.024934
   111  H   -0.025319
   112  H   -0.053719
   113  H   -0.033963
   114  H   -0.034228
   115  H   -0.016817
   116  H   -0.027286
   117  H   -0.012486
   118  H   -0.036800
   119  H   -0.045134
   120  H   -0.027664
   121  H   -0.015843
   122  H   -0.032747
   123  H   -0.038129
   124  H   -0.029728
   125  H   -0.023199
   126  H   -0.030131
   127  H   -0.008185
   128  H   -0.023078
   129  H   -0.022537
   130  H   -0.031917
   131  H   -0.030087
   132  H   -0.038218
   133  H   -0.046444
   134  H   -0.030034
   135  H   -0.029255
   136  H   -0.016234
   137  H   -0.013304
   138  H   -0.026088
   139  H   -0.019595
   140  H   -0.022705
 Sum of Mulliken charges =  -0.00000

 Dipole moment (field-independent basis, Debye):
    X=              1.3146    Y=              2.2126    Z=              1.3867  Tot=              2.9235
 Quadrupole moment (field-independent basis, Debye-Ang):
   XX=           -384.1168   YY=           -426.4298   ZZ=           -397.6406
   XY=              5.2511   XZ=             -3.2444   YZ=             12.4031

 Normal termination of Gaussian 16 at Wed May  4 09:18:23 2022.
