 Gaussian 16, Revision A.03,
 Gaussian 16:  ES64L-G16RevA.03 25-Dec-2016

 -----------------------------------
 #p cam-b3lyp/Def2SVP td=(nstates=5)
 -----------------------------------

 -------------------------------------------------------
 step_151_chromophore_22 TDDFT with cam-b3lyp functional
 -------------------------------------------------------
 Symbolic Z-matrix:
 Charge =  0 Multiplicity = 1

                         Standard orientation:
 ---------------------------------------------------------------------
 Center     Atomic      Atomic             Coordinates (Angstroms)
 Number     Number       Type             X           Y           Z
 ---------------------------------------------------------------------
      1         12           0       -6.023374    0.566865    0.060597
      2          6           0       -3.828807   -2.081461    0.691570
      3          6           0       -3.921064    2.680788    1.363813
      4          6           0       -8.204353    3.042432   -0.713298
      5          6           0       -8.488312   -1.876279   -0.834517
      6          7           0       -4.046049    0.296950    0.914583
      7          6           0       -3.380245   -0.834899    1.088183
      8          6           0       -2.171333   -0.463225    1.884037
      9          6           0       -2.569623    0.911903    2.572250
     10          6           0       -3.558327    1.329597    1.574773
     11          6           0       -3.208212    0.875605    3.994627
     12          6           0       -0.898988   -0.410008    0.937622
     13          6           0        0.357719   -0.687923    1.711763
     14          6           0        1.304968   -1.744867    1.219674
     15          8           0        1.151688   -2.944395    1.425825
     16          8           0        2.333687   -1.236303    0.373626
     17          7           0       -6.016118    2.629094    0.258803
     18          6           0       -5.080052    3.346181    0.843325
     19          6           0       -5.425011    4.681563    0.888761
     20          6           0       -6.663619    4.859166    0.171916
     21          6           0       -7.018079    3.485756   -0.140914
     22          6           0       -4.542239    5.798719    1.521045
     23          6           0       -7.503077    6.085713   -0.022795
     24          8           0       -8.649205    5.982787   -0.467078
     25          6           0       -6.924871    7.455514    0.233335
     26          7           0       -8.097799    0.632396   -0.646394
     27          6           0       -8.788947    1.809752   -0.883357
     28          6           0      -10.130521    1.481644   -1.559509
     29          6           0      -10.230713   -0.026410   -1.503405
     30          6           0       -8.826119   -0.462761   -0.985562
     31          6           0      -11.320156    2.176595   -0.867464
     32          6           0      -10.668178   -0.812284   -2.805987
     33          6           0      -11.440015   -2.131115   -2.604899
     34          7           0       -6.165452   -1.511655   -0.058422
     35          6           0       -7.209094   -2.336118   -0.348892
     36          6           0       -6.755352   -3.717190   -0.229502
     37          6           0       -5.411357   -3.651175    0.010019
     38          6           0       -5.072929   -2.313018    0.237343
     39          6           0       -7.579741   -5.026619   -0.339515
     40          6           0       -4.289466   -4.492125    0.254498
     41          8           0       -4.133328   -5.718992    0.181624
     42          6           0       -3.132041   -3.501733    0.672506
     43          6           0       -1.968808   -3.609298   -0.238105
     44          8           0       -1.842817   -3.018741   -1.323704
     45          8           0       -1.136788   -4.592200    0.291942
     46          6           0       -0.091114   -4.935326   -0.716932
     47          6           0        3.224386   -2.317765   -0.065823
     48          6           0        4.550013   -1.629921   -0.300477
     49          6           0        5.740907   -2.152703   -0.579176
     50          6           0        5.992825   -3.669123   -0.787458
     51          6           0        6.918812   -1.246870   -0.838392
     52          6           0        8.095606   -1.651206    0.074604
     53          6           0        8.410380   -0.520372    1.131417
     54          6           0        9.934879   -0.086439    0.988950
     55          6           0       10.581215    0.262854    2.327504
     56          6           0        9.998333    1.114151   -0.027186
     57          6           0       11.235749    1.079921   -0.950752
     58          6           0       11.445581    2.430024   -1.579341
     59          6           0       12.820264    2.452150   -2.388522
     60          6           0       12.562803    3.464213   -3.599286
     61          6           0       14.058684    2.817551   -1.485528
     62          6           0       15.281593    1.866306   -1.671858
     63          6           0       16.011983    1.505062   -0.331004
     64          6           0       15.429197    0.201272    0.411870
     65          6           0       14.916538    0.491995    1.746565
     66          6           0       16.337119   -0.988733    0.487139
     67          1           0       -3.396869    3.311655    2.084291
     68          1           0       -8.789767    3.792130   -1.248840
     69          1           0       -9.051791   -2.699994   -1.278624
     70          1           0       -2.060292   -1.275932    2.602127
     71          1           0       -1.671253    1.526243    2.529682
     72          1           0       -3.266785   -0.127273    4.418391
     73          1           0       -4.126123    1.454191    4.096016
     74          1           0       -2.616272    1.462816    4.697280
     75          1           0       -0.995207    0.556301    0.440927
     76          1           0       -1.034984   -1.180299    0.178621
     77          1           0        0.056053   -0.931414    2.731139
     78          1           0        1.002064    0.190589    1.743835
     79          1           0       -3.678814    5.326070    1.990520
     80          1           0       -5.063323    6.315993    2.326962
     81          1           0       -4.109016    6.376078    0.705211
     82          1           0       -5.958800    7.602179   -0.249774
     83          1           0       -6.914191    7.471605    1.323049
     84          1           0       -7.597827    8.211215   -0.171818
     85          1           0      -10.032420    1.868939   -2.573409
     86          1           0      -10.785602   -0.356419   -0.625272
     87          1           0      -11.137645    2.188807    0.207394
     88          1           0      -12.135209    1.455910   -0.801680
     89          1           0      -11.526057    3.157255   -1.294928
     90          1           0       -9.870615   -1.026959   -3.517316
     91          1           0      -11.469882   -0.200793   -3.218520
     92          1           0      -12.201130   -2.215949   -3.379882
     93          1           0      -11.984860   -2.174042   -1.661593
     94          1           0      -10.791184   -3.004729   -2.541718
     95          1           0       -8.625965   -4.722831   -0.287227
     96          1           0       -7.347030   -5.808880    0.382867
     97          1           0       -7.456570   -5.481508   -1.322548
     98          1           0       -2.800099   -3.623429    1.703446
     99          1           0       -0.334237   -5.727908   -1.424728
    100          1           0        0.677703   -5.462782   -0.152013
    101          1           0        0.368982   -4.072915   -1.198901
    102          1           0        2.999226   -2.681071   -1.068150
    103          1           0        3.402822   -3.104885    0.667172
    104          1           0        4.519919   -0.540705   -0.269780
    105          1           0        5.125484   -4.279810   -1.035788
    106          1           0        6.400236   -4.133474    0.111612
    107          1           0        6.658924   -3.755005   -1.646024
    108          1           0        6.700723   -0.198063   -0.642306
    109          1           0        7.325228   -1.347065   -1.845532
    110          1           0        9.017482   -1.835245   -0.477111
    111          1           0        7.741730   -2.517828    0.631450
    112          1           0        8.245596   -0.908785    2.136306
    113          1           0        7.610737    0.218563    1.072139
    114          1           0       10.490556   -0.954518    0.634234
    115          1           0       11.094163   -0.594508    2.762120
    116          1           0        9.782232    0.474709    3.037818
    117          1           0       11.244939    1.128260    2.348188
    118          1           0        9.803974    2.050526    0.496224
    119          1           0        9.171284    1.057862   -0.735065
    120          1           0       10.931964    0.380876   -1.730073
    121          1           0       12.113699    0.744461   -0.399038
    122          1           0       11.451385    3.186600   -0.795162
    123          1           0       10.603301    2.683772   -2.223860
    124          1           0       12.976457    1.500931   -2.897101
    125          1           0       12.698205    2.901029   -4.522222
    126          1           0       13.348584    4.219664   -3.604468
    127          1           0       11.618443    3.999781   -3.700906
    128          1           0       13.755606    2.779672   -0.439378
    129          1           0       14.485156    3.799503   -1.690112
    130          1           0       16.047051    2.289371   -2.320960
    131          1           0       14.967028    0.948929   -2.169506
    132          1           0       15.955123    2.441289    0.224073
    133          1           0       17.085703    1.334441   -0.420300
    134          1           0       14.641519   -0.147042   -0.256030
    135          1           0       14.548651    1.514408    1.833491
    136          1           0       15.711687    0.410716    2.487179
    137          1           0       14.034561   -0.122042    1.931807
    138          1           0       17.250058   -0.916349    1.078447
    139          1           0       16.681348   -1.308659   -0.496409
    140          1           0       15.804002   -1.778112    1.017119
 ---------------------------------------------------------------------

 SCF Done:  E(RCAM-B3LYP) =  -3007.16164769     A.U. after   16 cycles

 Excitation energies and oscillator strengths:

 Excited State   1:      Singlet-A      1.7497 eV  708.61 nm  f=0.3935  <S**2>=0.000
     245 -> 248        0.18321
     246 -> 247        0.68428
     245 <- 248        0.10538
 This state for optimization and/or second-order correction.
 Total Energy, E(TD-HF/TD-DFT) =  -3007.09734826
 Copying the excited state density for this state as the 1-particle RhoCI density.

 Excited State   2:      Singlet-A      2.2271 eV  556.70 nm  f=0.1066  <S**2>=0.000
     245 -> 247        0.64115
     246 -> 248       -0.28588

 Excited State   3:      Singlet-A      3.4003 eV  364.63 nm  f=0.0147  <S**2>=0.000
     239 -> 247       -0.27301
     239 -> 249        0.19008
     241 -> 247       -0.30230
     242 -> 247        0.15488
     244 -> 247        0.47393
     246 -> 248       -0.10072

 Excited State   4:      Singlet-A      3.4593 eV  358.40 nm  f=0.2267  <S**2>=0.000
     239 -> 247        0.22426
     239 -> 249       -0.14559
     241 -> 247        0.12128
     244 -> 247        0.39002
     245 -> 247        0.18066
     246 -> 248        0.44990

 Excited State   5:      Singlet-A      3.5137 eV  352.86 nm  f=0.2547  <S**2>=0.000
     239 -> 247        0.41675
     239 -> 249       -0.24885
     239 -> 250        0.10670
     241 -> 247       -0.15576
     244 -> 247        0.17207
     245 -> 247       -0.15965
     246 -> 248       -0.36758

 The electronic state is 1-A.
 Alpha  occ. eigenvalues --  -46.88332 -19.25517 -19.25209 -19.20799 -19.20269
 Alpha  occ. eigenvalues --  -19.19818 -19.17943 -14.41649 -14.41621 -14.39418
 Alpha  occ. eigenvalues --  -14.38639 -10.40054 -10.39557 -10.35789 -10.34446
 Alpha  occ. eigenvalues --  -10.31878 -10.31779 -10.30918 -10.30736 -10.30464
 Alpha  occ. eigenvalues --  -10.30205 -10.29781 -10.29078 -10.28939 -10.28830
 Alpha  occ. eigenvalues --  -10.28825 -10.28369 -10.28239 -10.28222 -10.27836
 Alpha  occ. eigenvalues --  -10.27747 -10.27638 -10.27630 -10.27612 -10.27258
 Alpha  occ. eigenvalues --  -10.27050 -10.26924 -10.26842 -10.26789 -10.26640
 Alpha  occ. eigenvalues --  -10.26612 -10.26416 -10.26281 -10.26136 -10.26059
 Alpha  occ. eigenvalues --  -10.25965 -10.25769 -10.25631 -10.25352 -10.25337
 Alpha  occ. eigenvalues --  -10.25260 -10.25180 -10.25125 -10.25088 -10.24913
 Alpha  occ. eigenvalues --  -10.24900 -10.24823 -10.24786 -10.24773 -10.24648
 Alpha  occ. eigenvalues --  -10.24621 -10.24564 -10.24197 -10.24195 -10.24160
 Alpha  occ. eigenvalues --  -10.23780  -3.16830  -1.91764  -1.91252  -1.91153
 Alpha  occ. eigenvalues --   -1.15696  -1.14969  -1.09524  -1.08799  -1.07945
 Alpha  occ. eigenvalues --   -1.07031  -1.06539  -1.03974  -1.03871  -1.02436
 Alpha  occ. eigenvalues --   -0.93395  -0.90476  -0.90037  -0.89355  -0.88796
 Alpha  occ. eigenvalues --   -0.88669  -0.88452  -0.87627  -0.87068  -0.86471
 Alpha  occ. eigenvalues --   -0.86118  -0.85711  -0.84418  -0.83806  -0.83564
 Alpha  occ. eigenvalues --   -0.82781  -0.81806  -0.81004  -0.80603  -0.80421
 Alpha  occ. eigenvalues --   -0.79809  -0.78665  -0.77885  -0.76846  -0.76011
 Alpha  occ. eigenvalues --   -0.75648  -0.75555  -0.75192  -0.74342  -0.74037
 Alpha  occ. eigenvalues --   -0.73368  -0.72974  -0.72185  -0.71022  -0.69414
 Alpha  occ. eigenvalues --   -0.68991  -0.67564  -0.67402  -0.66561  -0.65850
 Alpha  occ. eigenvalues --   -0.65469  -0.65028  -0.64752  -0.64508  -0.64208
 Alpha  occ. eigenvalues --   -0.63814  -0.63304  -0.62778  -0.61621  -0.60742
 Alpha  occ. eigenvalues --   -0.59810  -0.59613  -0.58931  -0.58490  -0.58065
 Alpha  occ. eigenvalues --   -0.57449  -0.57303  -0.56224  -0.55893  -0.55592
 Alpha  occ. eigenvalues --   -0.55364  -0.54978  -0.54822  -0.54461  -0.53969
 Alpha  occ. eigenvalues --   -0.53826  -0.53440  -0.53091  -0.53020  -0.52705
 Alpha  occ. eigenvalues --   -0.52599  -0.52106  -0.51918  -0.51866  -0.51682
 Alpha  occ. eigenvalues --   -0.51598  -0.51421  -0.51024  -0.50679  -0.50554
 Alpha  occ. eigenvalues --   -0.50473  -0.50181  -0.50128  -0.50043  -0.49707
 Alpha  occ. eigenvalues --   -0.49403  -0.49263  -0.49133  -0.48827  -0.48568
 Alpha  occ. eigenvalues --   -0.48332  -0.48304  -0.48060  -0.48002  -0.47885
 Alpha  occ. eigenvalues --   -0.47521  -0.47188  -0.47140  -0.46795  -0.46729
 Alpha  occ. eigenvalues --   -0.46560  -0.45785  -0.45704  -0.45468  -0.45320
 Alpha  occ. eigenvalues --   -0.45137  -0.45016  -0.44812  -0.44734  -0.44603
 Alpha  occ. eigenvalues --   -0.44332  -0.44319  -0.43976  -0.43831  -0.43655
 Alpha  occ. eigenvalues --   -0.43451  -0.43335  -0.43143  -0.43097  -0.42824
 Alpha  occ. eigenvalues --   -0.42654  -0.42535  -0.42464  -0.42269  -0.42218
 Alpha  occ. eigenvalues --   -0.41982  -0.41703  -0.41411  -0.41252  -0.41158
 Alpha  occ. eigenvalues --   -0.40677  -0.40608  -0.40328  -0.40133  -0.39927
 Alpha  occ. eigenvalues --   -0.39808  -0.39804  -0.39361  -0.39012  -0.38968
 Alpha  occ. eigenvalues --   -0.38916  -0.38274  -0.38011  -0.37969  -0.37849
 Alpha  occ. eigenvalues --   -0.37738  -0.37303  -0.36708  -0.36542  -0.36440
 Alpha  occ. eigenvalues --   -0.36188  -0.36156  -0.35172  -0.34599  -0.34387
 Alpha  occ. eigenvalues --   -0.33911  -0.33350  -0.33155  -0.31639  -0.31492
 Alpha  occ. eigenvalues --   -0.30448  -0.30179  -0.29711  -0.29351  -0.23936
 Alpha  occ. eigenvalues --   -0.21224
 Alpha virt. eigenvalues --   -0.08605  -0.01792  -0.00202   0.02535   0.03570
 Alpha virt. eigenvalues --    0.04018   0.04424   0.05378   0.06659   0.06774
 Alpha virt. eigenvalues --    0.08076   0.08237   0.08813   0.09058   0.09069

 Mulliken charges:
               1
     1  Mg   0.821868
     2  C   -0.053488
     3  C   -0.016495
     4  C   -0.049376
     5  C   -0.073647
     6  N   -0.239904
     7  C   -0.051826
     8  C   -0.115044
     9  C    0.000481
    10  C   -0.048728
    11  C    0.087151
    12  C    0.068279
    13  C    0.131186
    14  C    0.152530
    15  O   -0.231070
    16  O   -0.363241
    17  N   -0.343088
    18  C    0.104969
    19  C   -0.169997
    20  C   -0.014093
    21  C    0.109608
    22  C    0.126944
    23  C   -0.024221
    24  O   -0.220954
    25  C    0.070846
    26  N   -0.286720
    27  C   -0.010166
    28  C   -0.017827
    29  C   -0.014678
    30  C    0.044779
    31  C    0.092669
    32  C    0.046144
    33  C   -0.014144
    34  N   -0.357342
    35  C    0.092371
    36  C   -0.188444
    37  C    0.054030
    38  C    0.143616
    39  C    0.117363
    40  C    0.056354
    41  O   -0.170558
    42  C    0.017855
    43  C    0.237195
    44  O   -0.248864
    45  O   -0.322664
    46  C    0.183888
    47  C    0.310517
    48  C   -0.183543
    49  C   -0.161160
    50  C    0.069771
    51  C    0.097911
    52  C   -0.012010
    53  C    0.039051
    54  C   -0.110410
    55  C    0.055189
    56  C    0.036874
    57  C    0.015857
    58  C    0.029221
    59  C   -0.106589
    60  C    0.029167
    61  C    0.075830
    62  C   -0.014096
    63  C    0.025480
    64  C   -0.115537
    65  C    0.054645
    66  C    0.033814
    67  H   -0.036363
    68  H   -0.005500
    69  H   -0.027700
    70  H   -0.007534
    71  H    0.000671
    72  H    0.026976
    73  H    0.024090
    74  H    0.005803
    75  H    0.018864
    76  H    0.037616
    77  H    0.029441
    78  H    0.018578
    79  H   -0.009306
    80  H    0.029775
    81  H    0.033735
    82  H    0.037164
    83  H    0.033038
    84  H    0.026383
    85  H    0.015890
    86  H    0.012855
    87  H    0.001241
    88  H   -0.003406
    89  H    0.043969
    90  H    0.024766
    91  H    0.008519
    92  H    0.017460
    93  H    0.002874
    94  H    0.022526
    95  H    0.008380
    96  H    0.044535
    97  H    0.034090
    98  H    0.044855
    99  H    0.035089
   100  H    0.022789
   101  H    0.044218
   102  H    0.038833
   103  H    0.049817
   104  H   -0.002463
   105  H    0.006550
   106  H    0.035529
   107  H    0.017910
   108  H   -0.000939
   109  H   -0.000121
   110  H    0.002746
   111  H    0.002983
   112  H   -0.021900
   113  H   -0.006073
   114  H   -0.002098
   115  H    0.006860
   116  H   -0.002506
   117  H    0.010347
   118  H   -0.008327
   119  H   -0.018435
   120  H   -0.001510
   121  H    0.002985
   122  H   -0.005184
   123  H   -0.008749
   124  H    0.002246
   125  H    0.000664
   126  H   -0.006419
   127  H    0.015155
   128  H    0.001487
   129  H    0.005998
   130  H   -0.002626
   131  H   -0.004487
   132  H   -0.009448
   133  H   -0.015257
   134  H   -0.000590
   135  H   -0.005552
   136  H    0.008219
   137  H    0.008789
   138  H   -0.001873
   139  H    0.005181
   140  H    0.002348
 Sum of Mulliken charges =  -0.00000

 Dipole moment (field-independent basis, Debye):
    X=              1.6041    Y=              1.5284    Z=              1.5234  Tot=              2.6889
 Quadrupole moment (field-independent basis, Debye-Ang):
   XX=           -384.1300   YY=           -423.2295   ZZ=           -397.1198
   XY=             10.3430   XZ=             -2.8761   YZ=             13.2167

 Normal termination of Gaussian 16 at Wed May  4 08:22:12 2022.
