 Gaussian 16, Revision A.03,
 Gaussian 16:  ES64L-G16RevA.03 25-Dec-2016

 ---------------------------------
 #p PBE1PBE/Def2SVP td=(nstates=5)
 ---------------------------------

 -----------------------------------------------------
 step_151_chromophore_22 TDDFT with PBE1PBE functional
 -----------------------------------------------------
 Symbolic Z-matrix:
 Charge =  0 Multiplicity = 1

                         Standard orientation:
 ---------------------------------------------------------------------
 Center     Atomic      Atomic             Coordinates (Angstroms)
 Number     Number       Type             X           Y           Z
 ---------------------------------------------------------------------
      1         12           0       -6.023374    0.566865    0.060597
      2          6           0       -3.828807   -2.081461    0.691570
      3          6           0       -3.921064    2.680788    1.363813
      4          6           0       -8.204353    3.042432   -0.713298
      5          6           0       -8.488312   -1.876279   -0.834517
      6          7           0       -4.046049    0.296950    0.914583
      7          6           0       -3.380245   -0.834899    1.088183
      8          6           0       -2.171333   -0.463225    1.884037
      9          6           0       -2.569623    0.911903    2.572250
     10          6           0       -3.558327    1.329597    1.574773
     11          6           0       -3.208212    0.875605    3.994627
     12          6           0       -0.898988   -0.410008    0.937622
     13          6           0        0.357719   -0.687923    1.711763
     14          6           0        1.304968   -1.744867    1.219674
     15          8           0        1.151688   -2.944395    1.425825
     16          8           0        2.333687   -1.236303    0.373626
     17          7           0       -6.016118    2.629094    0.258803
     18          6           0       -5.080052    3.346181    0.843325
     19          6           0       -5.425011    4.681563    0.888761
     20          6           0       -6.663619    4.859166    0.171916
     21          6           0       -7.018079    3.485756   -0.140914
     22          6           0       -4.542239    5.798719    1.521045
     23          6           0       -7.503077    6.085713   -0.022795
     24          8           0       -8.649205    5.982787   -0.467078
     25          6           0       -6.924871    7.455514    0.233335
     26          7           0       -8.097799    0.632396   -0.646394
     27          6           0       -8.788947    1.809752   -0.883357
     28          6           0      -10.130521    1.481644   -1.559509
     29          6           0      -10.230713   -0.026410   -1.503405
     30          6           0       -8.826119   -0.462761   -0.985562
     31          6           0      -11.320156    2.176595   -0.867464
     32          6           0      -10.668178   -0.812284   -2.805987
     33          6           0      -11.440015   -2.131115   -2.604899
     34          7           0       -6.165452   -1.511655   -0.058422
     35          6           0       -7.209094   -2.336118   -0.348892
     36          6           0       -6.755352   -3.717190   -0.229502
     37          6           0       -5.411357   -3.651175    0.010019
     38          6           0       -5.072929   -2.313018    0.237343
     39          6           0       -7.579741   -5.026619   -0.339515
     40          6           0       -4.289466   -4.492125    0.254498
     41          8           0       -4.133328   -5.718992    0.181624
     42          6           0       -3.132041   -3.501733    0.672506
     43          6           0       -1.968808   -3.609298   -0.238105
     44          8           0       -1.842817   -3.018741   -1.323704
     45          8           0       -1.136788   -4.592200    0.291942
     46          6           0       -0.091114   -4.935326   -0.716932
     47          6           0        3.224386   -2.317765   -0.065823
     48          6           0        4.550013   -1.629921   -0.300477
     49          6           0        5.740907   -2.152703   -0.579176
     50          6           0        5.992825   -3.669123   -0.787458
     51          6           0        6.918812   -1.246870   -0.838392
     52          6           0        8.095606   -1.651206    0.074604
     53          6           0        8.410380   -0.520372    1.131417
     54          6           0        9.934879   -0.086439    0.988950
     55          6           0       10.581215    0.262854    2.327504
     56          6           0        9.998333    1.114151   -0.027186
     57          6           0       11.235749    1.079921   -0.950752
     58          6           0       11.445581    2.430024   -1.579341
     59          6           0       12.820264    2.452150   -2.388522
     60          6           0       12.562803    3.464213   -3.599286
     61          6           0       14.058684    2.817551   -1.485528
     62          6           0       15.281593    1.866306   -1.671858
     63          6           0       16.011983    1.505062   -0.331004
     64          6           0       15.429197    0.201272    0.411870
     65          6           0       14.916538    0.491995    1.746565
     66          6           0       16.337119   -0.988733    0.487139
     67          1           0       -3.396869    3.311655    2.084291
     68          1           0       -8.789767    3.792130   -1.248840
     69          1           0       -9.051791   -2.699994   -1.278624
     70          1           0       -2.060292   -1.275932    2.602127
     71          1           0       -1.671253    1.526243    2.529682
     72          1           0       -3.266785   -0.127273    4.418391
     73          1           0       -4.126123    1.454191    4.096016
     74          1           0       -2.616272    1.462816    4.697280
     75          1           0       -0.995207    0.556301    0.440927
     76          1           0       -1.034984   -1.180299    0.178621
     77          1           0        0.056053   -0.931414    2.731139
     78          1           0        1.002064    0.190589    1.743835
     79          1           0       -3.678814    5.326070    1.990520
     80          1           0       -5.063323    6.315993    2.326962
     81          1           0       -4.109016    6.376078    0.705211
     82          1           0       -5.958800    7.602179   -0.249774
     83          1           0       -6.914191    7.471605    1.323049
     84          1           0       -7.597827    8.211215   -0.171818
     85          1           0      -10.032420    1.868939   -2.573409
     86          1           0      -10.785602   -0.356419   -0.625272
     87          1           0      -11.137645    2.188807    0.207394
     88          1           0      -12.135209    1.455910   -0.801680
     89          1           0      -11.526057    3.157255   -1.294928
     90          1           0       -9.870615   -1.026959   -3.517316
     91          1           0      -11.469882   -0.200793   -3.218520
     92          1           0      -12.201130   -2.215949   -3.379882
     93          1           0      -11.984860   -2.174042   -1.661593
     94          1           0      -10.791184   -3.004729   -2.541718
     95          1           0       -8.625965   -4.722831   -0.287227
     96          1           0       -7.347030   -5.808880    0.382867
     97          1           0       -7.456570   -5.481508   -1.322548
     98          1           0       -2.800099   -3.623429    1.703446
     99          1           0       -0.334237   -5.727908   -1.424728
    100          1           0        0.677703   -5.462782   -0.152013
    101          1           0        0.368982   -4.072915   -1.198901
    102          1           0        2.999226   -2.681071   -1.068150
    103          1           0        3.402822   -3.104885    0.667172
    104          1           0        4.519919   -0.540705   -0.269780
    105          1           0        5.125484   -4.279810   -1.035788
    106          1           0        6.400236   -4.133474    0.111612
    107          1           0        6.658924   -3.755005   -1.646024
    108          1           0        6.700723   -0.198063   -0.642306
    109          1           0        7.325228   -1.347065   -1.845532
    110          1           0        9.017482   -1.835245   -0.477111
    111          1           0        7.741730   -2.517828    0.631450
    112          1           0        8.245596   -0.908785    2.136306
    113          1           0        7.610737    0.218563    1.072139
    114          1           0       10.490556   -0.954518    0.634234
    115          1           0       11.094163   -0.594508    2.762120
    116          1           0        9.782232    0.474709    3.037818
    117          1           0       11.244939    1.128260    2.348188
    118          1           0        9.803974    2.050526    0.496224
    119          1           0        9.171284    1.057862   -0.735065
    120          1           0       10.931964    0.380876   -1.730073
    121          1           0       12.113699    0.744461   -0.399038
    122          1           0       11.451385    3.186600   -0.795162
    123          1           0       10.603301    2.683772   -2.223860
    124          1           0       12.976457    1.500931   -2.897101
    125          1           0       12.698205    2.901029   -4.522222
    126          1           0       13.348584    4.219664   -3.604468
    127          1           0       11.618443    3.999781   -3.700906
    128          1           0       13.755606    2.779672   -0.439378
    129          1           0       14.485156    3.799503   -1.690112
    130          1           0       16.047051    2.289371   -2.320960
    131          1           0       14.967028    0.948929   -2.169506
    132          1           0       15.955123    2.441289    0.224073
    133          1           0       17.085703    1.334441   -0.420300
    134          1           0       14.641519   -0.147042   -0.256030
    135          1           0       14.548651    1.514408    1.833491
    136          1           0       15.711687    0.410716    2.487179
    137          1           0       14.034561   -0.122042    1.931807
    138          1           0       17.250058   -0.916349    1.078447
    139          1           0       16.681348   -1.308659   -0.496409
    140          1           0       15.804002   -1.778112    1.017119
 ---------------------------------------------------------------------

 SCF Done:  E(RPBE1PBE) =  -3005.34971184     A.U. after   15 cycles

 Excitation energies and oscillator strengths:

 Excited State   1:      Singlet-A      1.8724 eV  662.17 nm  f=0.3786  <S**2>=0.000
     245 -> 248       -0.18127
     246 -> 247        0.69051
     246 <- 247       -0.10255
 This state for optimization and/or second-order correction.
 Total Energy, E(TD-HF/TD-DFT) =  -3005.28090232
 Copying the excited state density for this state as the 1-particle RhoCI density.

 Excited State   2:      Singlet-A      2.2136 eV  560.09 nm  f=0.1020  <S**2>=0.000
     245 -> 247        0.65460
     246 -> 248        0.25656

 Excited State   3:      Singlet-A      3.0017 eV  413.05 nm  f=0.0003  <S**2>=0.000
     240 -> 247       -0.12767
     241 -> 247       -0.11524
     243 -> 247        0.64918

 Excited State   4:      Singlet-A      3.0644 eV  404.60 nm  f=0.0010  <S**2>=0.000
     240 -> 247        0.40846
     240 -> 249       -0.14924
     241 -> 247        0.36139
     242 -> 247        0.36127
     246 -> 248       -0.10958

 Excited State   5:      Singlet-A      3.1332 eV  395.71 nm  f=0.0020  <S**2>=0.000
     240 -> 247       -0.27955
     241 -> 247       -0.16872
     242 -> 247        0.57289
     243 -> 247       -0.18960

 The electronic state is 1-A.
 Alpha  occ. eigenvalues --  -46.91728 -19.26169 -19.25733 -19.20969 -19.20350
 Alpha  occ. eigenvalues --  -19.19767 -19.18447 -14.41235 -14.41053 -14.38975
 Alpha  occ. eigenvalues --  -14.38461 -10.37014 -10.36398 -10.32651 -10.31838
 Alpha  occ. eigenvalues --  -10.29387 -10.29252 -10.28362 -10.28121 -10.28076
 Alpha  occ. eigenvalues --  -10.27786 -10.27601 -10.27099 -10.26307 -10.26269
 Alpha  occ. eigenvalues --  -10.26259 -10.26182 -10.26109 -10.25981 -10.25431
 Alpha  occ. eigenvalues --  -10.25289 -10.25287 -10.25266 -10.25235 -10.25152
 Alpha  occ. eigenvalues --  -10.25141 -10.24539 -10.24364 -10.24344 -10.24311
 Alpha  occ. eigenvalues --  -10.24174 -10.24071 -10.24016 -10.23975 -10.23680
 Alpha  occ. eigenvalues --  -10.23514 -10.23232 -10.23050 -10.22937 -10.22902
 Alpha  occ. eigenvalues --  -10.22812 -10.22737 -10.22735 -10.22690 -10.22439
 Alpha  occ. eigenvalues --  -10.22428 -10.22419 -10.22355 -10.22346 -10.22191
 Alpha  occ. eigenvalues --  -10.22169 -10.22046 -10.21607 -10.21569 -10.21514
 Alpha  occ. eigenvalues --  -10.21114  -3.13810  -1.86685  -1.86149  -1.86057
 Alpha  occ. eigenvalues --   -1.10406  -1.09558  -1.03985  -1.03787  -1.02738
 Alpha  occ. eigenvalues --   -1.01687  -1.01130  -0.98858  -0.98422  -0.97101
 Alpha  occ. eigenvalues --   -0.87584  -0.84598  -0.84166  -0.83421  -0.83122
 Alpha  occ. eigenvalues --   -0.82787  -0.82750  -0.82036  -0.81166  -0.80672
 Alpha  occ. eigenvalues --   -0.80611  -0.79993  -0.78621  -0.78052  -0.77739
 Alpha  occ. eigenvalues --   -0.76954  -0.76145  -0.75297  -0.74819  -0.74685
 Alpha  occ. eigenvalues --   -0.73964  -0.72839  -0.72275  -0.71206  -0.70244
 Alpha  occ. eigenvalues --   -0.69782  -0.69636  -0.69527  -0.68463  -0.68206
 Alpha  occ. eigenvalues --   -0.67650  -0.67356  -0.66579  -0.65310  -0.63868
 Alpha  occ. eigenvalues --   -0.63305  -0.62117  -0.61621  -0.61039  -0.60045
 Alpha  occ. eigenvalues --   -0.59880  -0.59576  -0.59129  -0.58974  -0.58305
 Alpha  occ. eigenvalues --   -0.58174  -0.57450  -0.56980  -0.56081  -0.55138
 Alpha  occ. eigenvalues --   -0.54446  -0.54195  -0.53466  -0.53035  -0.52363
 Alpha  occ. eigenvalues --   -0.51893  -0.51736  -0.50751  -0.50333  -0.50103
 Alpha  occ. eigenvalues --   -0.49883  -0.49522  -0.49252  -0.48956  -0.48450
 Alpha  occ. eigenvalues --   -0.48365  -0.47815  -0.47689  -0.47511  -0.47168
 Alpha  occ. eigenvalues --   -0.47149  -0.46585  -0.46545  -0.46345  -0.46115
 Alpha  occ. eigenvalues --   -0.46099  -0.45827  -0.45609  -0.45273  -0.45188
 Alpha  occ. eigenvalues --   -0.45031  -0.44867  -0.44744  -0.44686  -0.44284
 Alpha  occ. eigenvalues --   -0.43924  -0.43833  -0.43664  -0.43563  -0.43263
 Alpha  occ. eigenvalues --   -0.42939  -0.42877  -0.42753  -0.42652  -0.42486
 Alpha  occ. eigenvalues --   -0.42148  -0.41870  -0.41770  -0.41387  -0.41233
 Alpha  occ. eigenvalues --   -0.41055  -0.40462  -0.40387  -0.40254  -0.40005
 Alpha  occ. eigenvalues --   -0.39876  -0.39709  -0.39544  -0.39474  -0.39246
 Alpha  occ. eigenvalues --   -0.38972  -0.38960  -0.38839  -0.38520  -0.38347
 Alpha  occ. eigenvalues --   -0.38098  -0.38017  -0.37997  -0.37817  -0.37603
 Alpha  occ. eigenvalues --   -0.37419  -0.37394  -0.37282  -0.37031  -0.36903
 Alpha  occ. eigenvalues --   -0.36864  -0.36595  -0.36239  -0.36104  -0.36015
 Alpha  occ. eigenvalues --   -0.35593  -0.35318  -0.35236  -0.34919  -0.34844
 Alpha  occ. eigenvalues --   -0.34754  -0.34537  -0.34203  -0.33942  -0.33769
 Alpha  occ. eigenvalues --   -0.33729  -0.33043  -0.33006  -0.32731  -0.32586
 Alpha  occ. eigenvalues --   -0.32504  -0.32178  -0.31793  -0.31458  -0.31296
 Alpha  occ. eigenvalues --   -0.31130  -0.31056  -0.30062  -0.29398  -0.29154
 Alpha  occ. eigenvalues --   -0.29022  -0.28809  -0.28164  -0.27045  -0.26310
 Alpha  occ. eigenvalues --   -0.25923  -0.25417  -0.25056  -0.24954  -0.20855
 Alpha  occ. eigenvalues --   -0.18832
 Alpha virt. eigenvalues --   -0.11125  -0.05333  -0.04381  -0.01920  -0.00993
 Alpha virt. eigenvalues --   -0.00031   0.01325   0.01935   0.02376   0.02693
 Alpha virt. eigenvalues --    0.03779   0.04894   0.04914   0.05746   0.05881

 Mulliken charges:
               1
     1  Mg   0.972355
     2  C   -0.068226
     3  C   -0.007236
     4  C   -0.046208
     5  C   -0.063404
     6  N   -0.348443
     7  C    0.028606
     8  C   -0.189559
     9  C   -0.082899
    10  C   -0.010491
    11  C    0.034096
    12  C    0.016320
    13  C    0.054973
    14  C    0.215430
    15  O   -0.261103
    16  O   -0.392927
    17  N   -0.463495
    18  C    0.131559
    19  C   -0.201843
    20  C   -0.054617
    21  C    0.137736
    22  C    0.067266
    23  C    0.025948
    24  O   -0.255249
    25  C   -0.003744
    26  N   -0.391261
    27  C    0.039650
    28  C   -0.106444
    29  C   -0.091120
    30  C    0.088468
    31  C    0.035773
    32  C   -0.022329
    33  C   -0.083802
    34  N   -0.482150
    35  C    0.117171
    36  C   -0.210550
    37  C    0.009476
    38  C    0.189799
    39  C    0.064939
    40  C    0.140786
    41  O   -0.218811
    42  C   -0.075109
    43  C    0.313140
    44  O   -0.281519
    45  O   -0.351490
    46  C    0.127888
    47  C    0.266629
    48  C   -0.188900
    49  C   -0.209626
    50  C    0.009866
    51  C    0.035138
    52  C   -0.075891
    53  C   -0.010706
    54  C   -0.202829
    55  C   -0.002643
    56  C   -0.011024
    57  C   -0.057333
    58  C   -0.024973
    59  C   -0.192015
    60  C   -0.027622
    61  C    0.021915
    62  C   -0.078002
    63  C   -0.027269
    64  C   -0.210618
    65  C   -0.009051
    66  C   -0.027197
    67  H   -0.003890
    68  H    0.027380
    69  H    0.008912
    70  H    0.031208
    71  H    0.037109
    72  H    0.054724
    73  H    0.050888
    74  H    0.033684
    75  H    0.049991
    76  H    0.080262
    77  H    0.060536
    78  H    0.050153
    79  H    0.021335
    80  H    0.058202
    81  H    0.062674
    82  H    0.063572
    83  H    0.061202
    84  H    0.054833
    85  H    0.053460
    86  H    0.051296
    87  H    0.030247
    88  H    0.026591
    89  H    0.069854
    90  H    0.056554
    91  H    0.042674
    92  H    0.045568
    93  H    0.030601
    94  H    0.049317
    95  H    0.033756
    96  H    0.069659
    97  H    0.060386
    98  H    0.080493
    99  H    0.057254
   100  H    0.044379
   101  H    0.066315
   102  H    0.066021
   103  H    0.075833
   104  H    0.027529
   105  H    0.034096
   106  H    0.061497
   107  H    0.045484
   108  H    0.028889
   109  H    0.033652
   110  H    0.034176
   111  H    0.038599
   112  H    0.011799
   113  H    0.024784
   114  H    0.034578
   115  H    0.034252
   116  H    0.025528
   117  H    0.037214
   118  H    0.022663
   119  H    0.017230
   120  H    0.032756
   121  H    0.041955
   122  H    0.027281
   123  H    0.023601
   124  H    0.038740
   125  H    0.028315
   126  H    0.021366
   127  H    0.040720
   128  H    0.034845
   129  H    0.037541
   130  H    0.030359
   131  H    0.027484
   132  H    0.022755
   133  H    0.017490
   134  H    0.038780
   135  H    0.022444
   136  H    0.035656
   137  H    0.037929
   138  H    0.025651
   139  H    0.033372
   140  H    0.030752
 Sum of Mulliken charges =  -0.00000

 Dipole moment (field-independent basis, Debye):
    X=              1.3973    Y=              2.2023    Z=              1.5519  Tot=              3.0349
 Quadrupole moment (field-independent basis, Debye-Ang):
   XX=           -377.1177   YY=           -419.6259   ZZ=           -394.2113
   XY=              6.5193   XZ=             -2.2557   YZ=             13.6208

 Normal termination of Gaussian 16 at Wed May  4 08:39:45 2022.
