 Gaussian 16, Revision A.03,
 Gaussian 16:  ES64L-G16RevA.03 25-Dec-2016

 --------------------------------
 #p wB97XD/Def2SVP td=(nstates=5)
 --------------------------------

 ----------------------------------------------------
 step_151_chromophore_22 TDDFT with wB97XD functional
 ----------------------------------------------------
 Symbolic Z-matrix:
 Charge =  0 Multiplicity = 1

                         Standard orientation:
 ---------------------------------------------------------------------
 Center     Atomic      Atomic             Coordinates (Angstroms)
 Number     Number       Type             X           Y           Z
 ---------------------------------------------------------------------
      1         12           0       -6.023374    0.566865    0.060597
      2          6           0       -3.828807   -2.081461    0.691570
      3          6           0       -3.921064    2.680788    1.363813
      4          6           0       -8.204353    3.042432   -0.713298
      5          6           0       -8.488312   -1.876279   -0.834517
      6          7           0       -4.046049    0.296950    0.914583
      7          6           0       -3.380245   -0.834899    1.088183
      8          6           0       -2.171333   -0.463225    1.884037
      9          6           0       -2.569623    0.911903    2.572250
     10          6           0       -3.558327    1.329597    1.574773
     11          6           0       -3.208212    0.875605    3.994627
     12          6           0       -0.898988   -0.410008    0.937622
     13          6           0        0.357719   -0.687923    1.711763
     14          6           0        1.304968   -1.744867    1.219674
     15          8           0        1.151688   -2.944395    1.425825
     16          8           0        2.333687   -1.236303    0.373626
     17          7           0       -6.016118    2.629094    0.258803
     18          6           0       -5.080052    3.346181    0.843325
     19          6           0       -5.425011    4.681563    0.888761
     20          6           0       -6.663619    4.859166    0.171916
     21          6           0       -7.018079    3.485756   -0.140914
     22          6           0       -4.542239    5.798719    1.521045
     23          6           0       -7.503077    6.085713   -0.022795
     24          8           0       -8.649205    5.982787   -0.467078
     25          6           0       -6.924871    7.455514    0.233335
     26          7           0       -8.097799    0.632396   -0.646394
     27          6           0       -8.788947    1.809752   -0.883357
     28          6           0      -10.130521    1.481644   -1.559509
     29          6           0      -10.230713   -0.026410   -1.503405
     30          6           0       -8.826119   -0.462761   -0.985562
     31          6           0      -11.320156    2.176595   -0.867464
     32          6           0      -10.668178   -0.812284   -2.805987
     33          6           0      -11.440015   -2.131115   -2.604899
     34          7           0       -6.165452   -1.511655   -0.058422
     35          6           0       -7.209094   -2.336118   -0.348892
     36          6           0       -6.755352   -3.717190   -0.229502
     37          6           0       -5.411357   -3.651175    0.010019
     38          6           0       -5.072929   -2.313018    0.237343
     39          6           0       -7.579741   -5.026619   -0.339515
     40          6           0       -4.289466   -4.492125    0.254498
     41          8           0       -4.133328   -5.718992    0.181624
     42          6           0       -3.132041   -3.501733    0.672506
     43          6           0       -1.968808   -3.609298   -0.238105
     44          8           0       -1.842817   -3.018741   -1.323704
     45          8           0       -1.136788   -4.592200    0.291942
     46          6           0       -0.091114   -4.935326   -0.716932
     47          6           0        3.224386   -2.317765   -0.065823
     48          6           0        4.550013   -1.629921   -0.300477
     49          6           0        5.740907   -2.152703   -0.579176
     50          6           0        5.992825   -3.669123   -0.787458
     51          6           0        6.918812   -1.246870   -0.838392
     52          6           0        8.095606   -1.651206    0.074604
     53          6           0        8.410380   -0.520372    1.131417
     54          6           0        9.934879   -0.086439    0.988950
     55          6           0       10.581215    0.262854    2.327504
     56          6           0        9.998333    1.114151   -0.027186
     57          6           0       11.235749    1.079921   -0.950752
     58          6           0       11.445581    2.430024   -1.579341
     59          6           0       12.820264    2.452150   -2.388522
     60          6           0       12.562803    3.464213   -3.599286
     61          6           0       14.058684    2.817551   -1.485528
     62          6           0       15.281593    1.866306   -1.671858
     63          6           0       16.011983    1.505062   -0.331004
     64          6           0       15.429197    0.201272    0.411870
     65          6           0       14.916538    0.491995    1.746565
     66          6           0       16.337119   -0.988733    0.487139
     67          1           0       -3.396869    3.311655    2.084291
     68          1           0       -8.789767    3.792130   -1.248840
     69          1           0       -9.051791   -2.699994   -1.278624
     70          1           0       -2.060292   -1.275932    2.602127
     71          1           0       -1.671253    1.526243    2.529682
     72          1           0       -3.266785   -0.127273    4.418391
     73          1           0       -4.126123    1.454191    4.096016
     74          1           0       -2.616272    1.462816    4.697280
     75          1           0       -0.995207    0.556301    0.440927
     76          1           0       -1.034984   -1.180299    0.178621
     77          1           0        0.056053   -0.931414    2.731139
     78          1           0        1.002064    0.190589    1.743835
     79          1           0       -3.678814    5.326070    1.990520
     80          1           0       -5.063323    6.315993    2.326962
     81          1           0       -4.109016    6.376078    0.705211
     82          1           0       -5.958800    7.602179   -0.249774
     83          1           0       -6.914191    7.471605    1.323049
     84          1           0       -7.597827    8.211215   -0.171818
     85          1           0      -10.032420    1.868939   -2.573409
     86          1           0      -10.785602   -0.356419   -0.625272
     87          1           0      -11.137645    2.188807    0.207394
     88          1           0      -12.135209    1.455910   -0.801680
     89          1           0      -11.526057    3.157255   -1.294928
     90          1           0       -9.870615   -1.026959   -3.517316
     91          1           0      -11.469882   -0.200793   -3.218520
     92          1           0      -12.201130   -2.215949   -3.379882
     93          1           0      -11.984860   -2.174042   -1.661593
     94          1           0      -10.791184   -3.004729   -2.541718
     95          1           0       -8.625965   -4.722831   -0.287227
     96          1           0       -7.347030   -5.808880    0.382867
     97          1           0       -7.456570   -5.481508   -1.322548
     98          1           0       -2.800099   -3.623429    1.703446
     99          1           0       -0.334237   -5.727908   -1.424728
    100          1           0        0.677703   -5.462782   -0.152013
    101          1           0        0.368982   -4.072915   -1.198901
    102          1           0        2.999226   -2.681071   -1.068150
    103          1           0        3.402822   -3.104885    0.667172
    104          1           0        4.519919   -0.540705   -0.269780
    105          1           0        5.125484   -4.279810   -1.035788
    106          1           0        6.400236   -4.133474    0.111612
    107          1           0        6.658924   -3.755005   -1.646024
    108          1           0        6.700723   -0.198063   -0.642306
    109          1           0        7.325228   -1.347065   -1.845532
    110          1           0        9.017482   -1.835245   -0.477111
    111          1           0        7.741730   -2.517828    0.631450
    112          1           0        8.245596   -0.908785    2.136306
    113          1           0        7.610737    0.218563    1.072139
    114          1           0       10.490556   -0.954518    0.634234
    115          1           0       11.094163   -0.594508    2.762120
    116          1           0        9.782232    0.474709    3.037818
    117          1           0       11.244939    1.128260    2.348188
    118          1           0        9.803974    2.050526    0.496224
    119          1           0        9.171284    1.057862   -0.735065
    120          1           0       10.931964    0.380876   -1.730073
    121          1           0       12.113699    0.744461   -0.399038
    122          1           0       11.451385    3.186600   -0.795162
    123          1           0       10.603301    2.683772   -2.223860
    124          1           0       12.976457    1.500931   -2.897101
    125          1           0       12.698205    2.901029   -4.522222
    126          1           0       13.348584    4.219664   -3.604468
    127          1           0       11.618443    3.999781   -3.700906
    128          1           0       13.755606    2.779672   -0.439378
    129          1           0       14.485156    3.799503   -1.690112
    130          1           0       16.047051    2.289371   -2.320960
    131          1           0       14.967028    0.948929   -2.169506
    132          1           0       15.955123    2.441289    0.224073
    133          1           0       17.085703    1.334441   -0.420300
    134          1           0       14.641519   -0.147042   -0.256030
    135          1           0       14.548651    1.514408    1.833491
    136          1           0       15.711687    0.410716    2.487179
    137          1           0       14.034561   -0.122042    1.931807
    138          1           0       17.250058   -0.916349    1.078447
    139          1           0       16.681348   -1.308659   -0.496409
    140          1           0       15.804002   -1.778112    1.017119
 ---------------------------------------------------------------------

 SCF Done:  E(RwB97XD) =  -3007.85925054     A.U. after   19 cycles

 Excitation energies and oscillator strengths:

 Excited State   1:      Singlet-A      1.7077 eV  726.02 nm  f=0.3924  <S**2>=0.000
     245 -> 248       -0.18662
     246 -> 247        0.68223
     245 <- 248       -0.11318
 This state for optimization and/or second-order correction.
 Total Energy, E(TD-HF/TD-DFT) =  -3007.79649294
 Copying the excited state density for this state as the 1-particle RhoCI density.

 Excited State   2:      Singlet-A      2.1759 eV  569.82 nm  f=0.1034  <S**2>=0.000
     245 -> 247        0.63870
     246 -> 248        0.28803

 Excited State   3:      Singlet-A      3.4072 eV  363.89 nm  f=0.0441  <S**2>=0.000
     240 -> 247        0.28168
     240 -> 249       -0.21602
     241 -> 247        0.40137
     244 -> 247       -0.34714
     246 -> 248       -0.19791

 Excited State   4:      Singlet-A      3.4941 eV  354.84 nm  f=0.2728  <S**2>=0.000
     240 -> 247       -0.11976
     244 -> 247       -0.45053
     245 -> 247       -0.19734
     246 -> 248        0.46025

 Excited State   5:      Singlet-A      3.5210 eV  352.12 nm  f=0.1883  <S**2>=0.000
     240 -> 247        0.44269
     240 -> 249       -0.27564
     240 -> 250        0.11048
     241 -> 247       -0.16314
     244 -> 247        0.18169
     245 -> 247       -0.13015
     246 -> 248        0.30862

 The electronic state is 1-A.
 Alpha  occ. eigenvalues --  -46.94660 -19.30785 -19.30467 -19.25730 -19.25260
 Alpha  occ. eigenvalues --  -19.24967 -19.22894 -14.46240 -14.46192 -14.44079
 Alpha  occ. eigenvalues --  -14.43184 -10.43882 -10.43450 -10.39885 -10.38330
 Alpha  occ. eigenvalues --  -10.35865 -10.35782 -10.34984 -10.34875 -10.34265
 Alpha  occ. eigenvalues --  -10.34160 -10.33735 -10.33092 -10.33031 -10.33011
 Alpha  occ. eigenvalues --  -10.32921 -10.32404 -10.32306 -10.32131 -10.31775
 Alpha  occ. eigenvalues --  -10.31756 -10.31751 -10.31741 -10.31669 -10.31249
 Alpha  occ. eigenvalues --  -10.31082 -10.30881 -10.30760 -10.30690 -10.30676
 Alpha  occ. eigenvalues --  -10.30521 -10.30434 -10.30296 -10.30053 -10.29995
 Alpha  occ. eigenvalues --  -10.29967 -10.29570 -10.29485 -10.29453 -10.29192
 Alpha  occ. eigenvalues --  -10.29185 -10.29127 -10.29050 -10.29039 -10.28843
 Alpha  occ. eigenvalues --  -10.28804 -10.28776 -10.28713 -10.28706 -10.28575
 Alpha  occ. eigenvalues --  -10.28555 -10.28459 -10.28026 -10.28009 -10.27965
 Alpha  occ. eigenvalues --  -10.27565  -3.20593  -1.94218  -1.93681  -1.93588
 Alpha  occ. eigenvalues --   -1.17865  -1.17162  -1.11844  -1.10930  -1.10162
 Alpha  occ. eigenvalues --   -1.09261  -1.08555  -1.06089  -1.05851  -1.04434
 Alpha  occ. eigenvalues --   -0.95447  -0.92308  -0.91865  -0.91106  -0.90700
 Alpha  occ. eigenvalues --   -0.90436  -0.90347  -0.89535  -0.88852  -0.88463
 Alpha  occ. eigenvalues --   -0.87984  -0.87603  -0.86267  -0.85690  -0.85506
 Alpha  occ. eigenvalues --   -0.84627  -0.83707  -0.82891  -0.82487  -0.82355
 Alpha  occ. eigenvalues --   -0.81675  -0.80586  -0.79797  -0.78746  -0.77973
 Alpha  occ. eigenvalues --   -0.77492  -0.77333  -0.77111  -0.76153  -0.75877
 Alpha  occ. eigenvalues --   -0.75323  -0.74929  -0.74164  -0.72948  -0.71424
 Alpha  occ. eigenvalues --   -0.70910  -0.69521  -0.69267  -0.68520  -0.67706
 Alpha  occ. eigenvalues --   -0.67397  -0.67021  -0.66644  -0.66504  -0.66007
 Alpha  occ. eigenvalues --   -0.65765  -0.65113  -0.64611  -0.63657  -0.62716
 Alpha  occ. eigenvalues --   -0.61784  -0.61590  -0.60897  -0.60506  -0.60020
 Alpha  occ. eigenvalues --   -0.59378  -0.59252  -0.58230  -0.57837  -0.57529
 Alpha  occ. eigenvalues --   -0.57326  -0.56824  -0.56754  -0.56404  -0.55884
 Alpha  occ. eigenvalues --   -0.55818  -0.55285  -0.54992  -0.54898  -0.54607
 Alpha  occ. eigenvalues --   -0.54511  -0.54012  -0.53801  -0.53736  -0.53556
 Alpha  occ. eigenvalues --   -0.53519  -0.53386  -0.53010  -0.52588  -0.52471
 Alpha  occ. eigenvalues --   -0.52361  -0.52085  -0.52014  -0.51941  -0.51655
 Alpha  occ. eigenvalues --   -0.51278  -0.51171  -0.51078  -0.50740  -0.50491
 Alpha  occ. eigenvalues --   -0.50269  -0.50184  -0.49974  -0.49915  -0.49793
 Alpha  occ. eigenvalues --   -0.49461  -0.49059  -0.49031  -0.48749  -0.48635
 Alpha  occ. eigenvalues --   -0.48524  -0.47691  -0.47608  -0.47391  -0.47189
 Alpha  occ. eigenvalues --   -0.47044  -0.46958  -0.46750  -0.46669  -0.46459
 Alpha  occ. eigenvalues --   -0.46329  -0.46188  -0.45949  -0.45724  -0.45552
 Alpha  occ. eigenvalues --   -0.45392  -0.45217  -0.45004  -0.44957  -0.44756
 Alpha  occ. eigenvalues --   -0.44538  -0.44507  -0.44402  -0.44232  -0.44076
 Alpha  occ. eigenvalues --   -0.43883  -0.43650  -0.43269  -0.43189  -0.43026
 Alpha  occ. eigenvalues --   -0.42596  -0.42448  -0.42227  -0.41993  -0.41816
 Alpha  occ. eigenvalues --   -0.41693  -0.41625  -0.41267  -0.40858  -0.40809
 Alpha  occ. eigenvalues --   -0.40803  -0.40117  -0.39880  -0.39831  -0.39666
 Alpha  occ. eigenvalues --   -0.39590  -0.39259  -0.38879  -0.38496  -0.38397
 Alpha  occ. eigenvalues --   -0.38090  -0.38007  -0.37011  -0.36568  -0.36305
 Alpha  occ. eigenvalues --   -0.35888  -0.35587  -0.34989  -0.33736  -0.33699
 Alpha  occ. eigenvalues --   -0.32622  -0.32110  -0.31744  -0.31467  -0.25876
 Alpha  occ. eigenvalues --   -0.23045
 Alpha virt. eigenvalues --   -0.06948   0.00133   0.01842   0.04646   0.05781
 Alpha virt. eigenvalues --    0.06536   0.07122   0.08292   0.09051   0.09211
 Alpha virt. eigenvalues --    0.10570   0.11563   0.11768   0.12448   0.12651

 Mulliken charges:
               1
     1  Mg   0.962404
     2  C   -0.072376
     3  C   -0.019065
     4  C   -0.060047
     5  C   -0.079078
     6  N   -0.312111
     7  C   -0.005032
     8  C   -0.159799
     9  C   -0.054618
    10  C   -0.027064
    11  C    0.039918
    12  C    0.029694
    13  C    0.071080
    14  C    0.205992
    15  O   -0.258414
    16  O   -0.392668
    17  N   -0.429046
    18  C    0.119905
    19  C   -0.193857
    20  C   -0.052825
    21  C    0.127873
    22  C    0.080689
    23  C    0.021899
    24  O   -0.252420
    25  C    0.008207
    26  N   -0.358835
    27  C    0.019437
    28  C   -0.078050
    29  C   -0.064430
    30  C    0.077567
    31  C    0.045094
    32  C   -0.006394
    33  C   -0.068605
    34  N   -0.446796
    35  C    0.112166
    36  C   -0.204326
    37  C    0.012865
    38  C    0.177992
    39  C    0.076915
    40  C    0.126300
    41  O   -0.205685
    42  C   -0.040604
    43  C    0.292682
    44  O   -0.275375
    45  O   -0.350161
    46  C    0.141607
    47  C    0.279706
    48  C   -0.195564
    49  C   -0.194259
    50  C    0.020402
    51  C    0.052469
    52  C   -0.056950
    53  C    0.002528
    54  C   -0.168487
    55  C    0.006974
    56  C    0.000632
    57  C   -0.029738
    58  C   -0.008080
    59  C   -0.164270
    60  C   -0.014835
    61  C    0.034769
    62  C   -0.057863
    63  C   -0.015187
    64  C   -0.177936
    65  C    0.005184
    66  C   -0.015740
    67  H   -0.014255
    68  H    0.021599
    69  H   -0.006290
    70  H    0.017004
    71  H    0.027921
    72  H    0.048889
    73  H    0.045383
    74  H    0.028273
    75  H    0.044812
    76  H    0.062799
    77  H    0.054656
    78  H    0.046027
    79  H    0.014491
    80  H    0.051830
    81  H    0.055747
    82  H    0.058252
    83  H    0.054187
    84  H    0.052574
    85  H    0.044256
    86  H    0.037756
    87  H    0.023444
    88  H    0.018420
    89  H    0.066758
    90  H    0.050319
    91  H    0.034056
    92  H    0.041457
    93  H    0.024075
    94  H    0.042095
    95  H    0.029278
    96  H    0.068071
    97  H    0.057689
    98  H    0.075462
    99  H    0.054382
   100  H    0.042081
   101  H    0.061452
   102  H    0.060290
   103  H    0.070624
   104  H    0.024002
   105  H    0.029190
   106  H    0.056186
   107  H    0.040002
   108  H    0.018544
   109  H    0.026765
   110  H    0.025040
   111  H    0.026378
   112  H    0.003635
   113  H    0.015312
   114  H    0.021875
   115  H    0.029031
   116  H    0.018793
   117  H    0.031492
   118  H    0.014364
   119  H    0.004795
   120  H    0.023178
   121  H    0.023010
   122  H    0.017482
   123  H    0.014666
   124  H    0.026301
   125  H    0.022627
   126  H    0.014367
   127  H    0.035199
   128  H    0.020917
   129  H    0.030354
   130  H    0.023730
   131  H    0.015759
   132  H    0.013243
   133  H    0.010637
   134  H    0.023735
   135  H    0.014817
   136  H    0.029623
   137  H    0.031401
   138  H    0.019223
   139  H    0.027889
   140  H    0.024223
 Sum of Mulliken charges =  -0.00000

 Dipole moment (field-independent basis, Debye):
    X=              1.6489    Y=              1.3555    Z=              1.5310  Tot=              2.6269
 Quadrupole moment (field-independent basis, Debye-Ang):
   XX=           -379.3162   YY=           -418.7769   ZZ=           -394.0077
   XY=             11.6555   XZ=             -2.3240   YZ=             13.5734

 Normal termination of Gaussian 16 at Wed May  4 09:05:24 2022.
