 Gaussian 16, Revision A.03,
 Gaussian 16:  ES64L-G16RevA.03 25-Dec-2016

 --------------------
 #p ZINDO=(nstates=5)
 --------------------

 -----------------------------
 step_151_chromophore_22 ZINDO
 -----------------------------
 Symbolic Z-matrix:
 Charge =  0 Multiplicity = 1

                         Standard orientation:
 ---------------------------------------------------------------------
 Center     Atomic      Atomic             Coordinates (Angstroms)
 Number     Number       Type             X           Y           Z
 ---------------------------------------------------------------------
      1         12           0       -6.023374    0.566865    0.060597
      2          6           0       -3.828807   -2.081461    0.691570
      3          6           0       -3.921064    2.680788    1.363813
      4          6           0       -8.204353    3.042432   -0.713298
      5          6           0       -8.488312   -1.876279   -0.834517
      6          7           0       -4.046049    0.296950    0.914583
      7          6           0       -3.380245   -0.834899    1.088183
      8          6           0       -2.171333   -0.463225    1.884037
      9          6           0       -2.569623    0.911903    2.572250
     10          6           0       -3.558327    1.329597    1.574773
     11          6           0       -3.208212    0.875605    3.994627
     12          6           0       -0.898988   -0.410008    0.937622
     13          6           0        0.357719   -0.687923    1.711763
     14          6           0        1.304968   -1.744867    1.219674
     15          8           0        1.151688   -2.944395    1.425825
     16          8           0        2.333687   -1.236303    0.373626
     17          7           0       -6.016118    2.629094    0.258803
     18          6           0       -5.080052    3.346181    0.843325
     19          6           0       -5.425011    4.681563    0.888761
     20          6           0       -6.663619    4.859166    0.171916
     21          6           0       -7.018079    3.485756   -0.140914
     22          6           0       -4.542239    5.798719    1.521045
     23          6           0       -7.503077    6.085713   -0.022795
     24          8           0       -8.649205    5.982787   -0.467078
     25          6           0       -6.924871    7.455514    0.233335
     26          7           0       -8.097799    0.632396   -0.646394
     27          6           0       -8.788947    1.809752   -0.883357
     28          6           0      -10.130521    1.481644   -1.559509
     29          6           0      -10.230713   -0.026410   -1.503405
     30          6           0       -8.826119   -0.462761   -0.985562
     31          6           0      -11.320156    2.176595   -0.867464
     32          6           0      -10.668178   -0.812284   -2.805987
     33          6           0      -11.440015   -2.131115   -2.604899
     34          7           0       -6.165452   -1.511655   -0.058422
     35          6           0       -7.209094   -2.336118   -0.348892
     36          6           0       -6.755352   -3.717190   -0.229502
     37          6           0       -5.411357   -3.651175    0.010019
     38          6           0       -5.072929   -2.313018    0.237343
     39          6           0       -7.579741   -5.026619   -0.339515
     40          6           0       -4.289466   -4.492125    0.254498
     41          8           0       -4.133328   -5.718992    0.181624
     42          6           0       -3.132041   -3.501733    0.672506
     43          6           0       -1.968808   -3.609298   -0.238105
     44          8           0       -1.842817   -3.018741   -1.323704
     45          8           0       -1.136788   -4.592200    0.291942
     46          6           0       -0.091114   -4.935326   -0.716932
     47          6           0        3.224386   -2.317765   -0.065823
     48          6           0        4.550013   -1.629921   -0.300477
     49          6           0        5.740907   -2.152703   -0.579176
     50          6           0        5.992825   -3.669123   -0.787458
     51          6           0        6.918812   -1.246870   -0.838392
     52          6           0        8.095606   -1.651206    0.074604
     53          6           0        8.410380   -0.520372    1.131417
     54          6           0        9.934879   -0.086439    0.988950
     55          6           0       10.581215    0.262854    2.327504
     56          6           0        9.998333    1.114151   -0.027186
     57          6           0       11.235749    1.079921   -0.950752
     58          6           0       11.445581    2.430024   -1.579341
     59          6           0       12.820264    2.452150   -2.388522
     60          6           0       12.562803    3.464213   -3.599286
     61          6           0       14.058684    2.817551   -1.485528
     62          6           0       15.281593    1.866306   -1.671858
     63          6           0       16.011983    1.505062   -0.331004
     64          6           0       15.429197    0.201272    0.411870
     65          6           0       14.916538    0.491995    1.746565
     66          6           0       16.337119   -0.988733    0.487139
     67          1           0       -3.396869    3.311655    2.084291
     68          1           0       -8.789767    3.792130   -1.248840
     69          1           0       -9.051791   -2.699994   -1.278624
     70          1           0       -2.060292   -1.275932    2.602127
     71          1           0       -1.671253    1.526243    2.529682
     72          1           0       -3.266785   -0.127273    4.418391
     73          1           0       -4.126123    1.454191    4.096016
     74          1           0       -2.616272    1.462816    4.697280
     75          1           0       -0.995207    0.556301    0.440927
     76          1           0       -1.034984   -1.180299    0.178621
     77          1           0        0.056053   -0.931414    2.731139
     78          1           0        1.002064    0.190589    1.743835
     79          1           0       -3.678814    5.326070    1.990520
     80          1           0       -5.063323    6.315993    2.326962
     81          1           0       -4.109016    6.376078    0.705211
     82          1           0       -5.958800    7.602179   -0.249774
     83          1           0       -6.914191    7.471605    1.323049
     84          1           0       -7.597827    8.211215   -0.171818
     85          1           0      -10.032420    1.868939   -2.573409
     86          1           0      -10.785602   -0.356419   -0.625272
     87          1           0      -11.137645    2.188807    0.207394
     88          1           0      -12.135209    1.455910   -0.801680
     89          1           0      -11.526057    3.157255   -1.294928
     90          1           0       -9.870615   -1.026959   -3.517316
     91          1           0      -11.469882   -0.200793   -3.218520
     92          1           0      -12.201130   -2.215949   -3.379882
     93          1           0      -11.984860   -2.174042   -1.661593
     94          1           0      -10.791184   -3.004729   -2.541718
     95          1           0       -8.625965   -4.722831   -0.287227
     96          1           0       -7.347030   -5.808880    0.382867
     97          1           0       -7.456570   -5.481508   -1.322548
     98          1           0       -2.800099   -3.623429    1.703446
     99          1           0       -0.334237   -5.727908   -1.424728
    100          1           0        0.677703   -5.462782   -0.152013
    101          1           0        0.368982   -4.072915   -1.198901
    102          1           0        2.999226   -2.681071   -1.068150
    103          1           0        3.402822   -3.104885    0.667172
    104          1           0        4.519919   -0.540705   -0.269780
    105          1           0        5.125484   -4.279810   -1.035788
    106          1           0        6.400236   -4.133474    0.111612
    107          1           0        6.658924   -3.755005   -1.646024
    108          1           0        6.700723   -0.198063   -0.642306
    109          1           0        7.325228   -1.347065   -1.845532
    110          1           0        9.017482   -1.835245   -0.477111
    111          1           0        7.741730   -2.517828    0.631450
    112          1           0        8.245596   -0.908785    2.136306
    113          1           0        7.610737    0.218563    1.072139
    114          1           0       10.490556   -0.954518    0.634234
    115          1           0       11.094163   -0.594508    2.762120
    116          1           0        9.782232    0.474709    3.037818
    117          1           0       11.244939    1.128260    2.348188
    118          1           0        9.803974    2.050526    0.496224
    119          1           0        9.171284    1.057862   -0.735065
    120          1           0       10.931964    0.380876   -1.730073
    121          1           0       12.113699    0.744461   -0.399038
    122          1           0       11.451385    3.186600   -0.795162
    123          1           0       10.603301    2.683772   -2.223860
    124          1           0       12.976457    1.500931   -2.897101
    125          1           0       12.698205    2.901029   -4.522222
    126          1           0       13.348584    4.219664   -3.604468
    127          1           0       11.618443    3.999781   -3.700906
    128          1           0       13.755606    2.779672   -0.439378
    129          1           0       14.485156    3.799503   -1.690112
    130          1           0       16.047051    2.289371   -2.320960
    131          1           0       14.967028    0.948929   -2.169506
    132          1           0       15.955123    2.441289    0.224073
    133          1           0       17.085703    1.334441   -0.420300
    134          1           0       14.641519   -0.147042   -0.256030
    135          1           0       14.548651    1.514408    1.833491
    136          1           0       15.711687    0.410716    2.487179
    137          1           0       14.034561   -0.122042    1.931807
    138          1           0       17.250058   -0.916349    1.078447
    139          1           0       16.681348   -1.308659   -0.496409
    140          1           0       15.804002   -1.778112    1.017119
 ---------------------------------------------------------------------

 SCF Done:  E(RZINDO/S) =  -474.397793032     A.U. after   19 cycles

 Excitation energies and oscillator strengths:

 Excited State   1:      Singlet-A      1.3350 eV  928.71 nm  f=0.5749  <S**2>=0.000
     175 ->178         0.16000
     176 ->177         0.66823
 This state for optimization and/or second-order correction.
 Total Energy, E(CIS/TDA) =  -474.348731995
 Copying the excited state density for this state as the 1-particle RhoCI density.

 Excited State   2:      Singlet-A      1.9417 eV  638.54 nm  f=0.0395  <S**2>=0.000
     175 ->177         0.53947
     176 ->178        -0.39578
     176 ->179         0.16142

 Excited State   3:      Singlet-A      2.9080 eV  426.36 nm  f=0.1441  <S**2>=0.000
     167 ->177         0.25576
     167 ->178        -0.19529
     167 ->179        -0.26567
     167 ->182         0.12954
     167 ->185        -0.10673
     168 ->177         0.17630
     168 ->178        -0.12127
     168 ->179        -0.16467
     169 ->177         0.12154
     175 ->177         0.15742
     176 ->178         0.28268
     176 ->179         0.13929

 Excited State   4:      Singlet-A      2.9692 eV  417.57 nm  f=0.5854  <S**2>=0.000
     167 ->177        -0.16125
     167 ->178         0.11348
     167 ->179         0.16248
     168 ->177        -0.12278
     168 ->179         0.10685
     175 ->177         0.28814
     176 ->178         0.46935
     176 ->179         0.18059

 Excited State   5:      Singlet-A      3.0146 eV  411.28 nm  f=0.1246  <S**2>=0.000
     170 ->181        -0.10397
     171 ->177        -0.17568
     171 ->179        -0.18495
     171 ->181         0.22409
     171 ->182        -0.23009
     171 ->185        -0.16817
     171 ->188        -0.13422
     175 ->177        -0.12881
     176 ->179         0.33017
     176 ->181        -0.15818
     176 ->182         0.10203

 The electronic state is 1-A.
 Alpha  occ. eigenvalues --   -1.88534  -1.83741  -1.81030  -1.73624  -1.72157
 Alpha  occ. eigenvalues --   -1.70364  -1.64166  -1.60591  -1.57980  -1.57424
 Alpha  occ. eigenvalues --   -1.55575  -1.51499  -1.49487  -1.48596  -1.46634
 Alpha  occ. eigenvalues --   -1.44473  -1.42811  -1.39606  -1.39063  -1.38293
 Alpha  occ. eigenvalues --   -1.36744  -1.32982  -1.32811  -1.31662  -1.29015
 Alpha  occ. eigenvalues --   -1.28142  -1.24899  -1.21619  -1.20963  -1.19655
 Alpha  occ. eigenvalues --   -1.17623  -1.15712  -1.15335  -1.13465  -1.12162
 Alpha  occ. eigenvalues --   -1.11696  -1.10546  -1.09908  -1.04984  -1.03948
 Alpha  occ. eigenvalues --   -1.02424  -1.01746  -0.99097  -0.98085  -0.96612
 Alpha  occ. eigenvalues --   -0.95478  -0.94616  -0.94240  -0.92325  -0.91898
 Alpha  occ. eigenvalues --   -0.90530  -0.90355  -0.89001  -0.88364  -0.86987
 Alpha  occ. eigenvalues --   -0.86385  -0.85352  -0.83581  -0.82934  -0.80224
 Alpha  occ. eigenvalues --   -0.79866  -0.78723  -0.77962  -0.76653  -0.75854
 Alpha  occ. eigenvalues --   -0.75389  -0.75240  -0.74331  -0.73806  -0.73293
 Alpha  occ. eigenvalues --   -0.72889  -0.72390  -0.71670  -0.71383  -0.70790
 Alpha  occ. eigenvalues --   -0.70027  -0.69404  -0.68831  -0.68006  -0.67428
 Alpha  occ. eigenvalues --   -0.67212  -0.67066  -0.66770  -0.66558  -0.66098
 Alpha  occ. eigenvalues --   -0.65564  -0.65479  -0.64977  -0.63688  -0.63368
 Alpha  occ. eigenvalues --   -0.62999  -0.62555  -0.62269  -0.62094  -0.61764
 Alpha  occ. eigenvalues --   -0.61594  -0.61022  -0.60682  -0.60317  -0.60109
 Alpha  occ. eigenvalues --   -0.59793  -0.59455  -0.59119  -0.58836  -0.58076
 Alpha  occ. eigenvalues --   -0.57637  -0.57436  -0.57325  -0.57059  -0.55889
 Alpha  occ. eigenvalues --   -0.55857  -0.55414  -0.54853  -0.54651  -0.54396
 Alpha  occ. eigenvalues --   -0.53923  -0.53874  -0.53344  -0.53224  -0.52732
 Alpha  occ. eigenvalues --   -0.52509  -0.52045  -0.51709  -0.51309  -0.51031
 Alpha  occ. eigenvalues --   -0.50949  -0.50886  -0.50756  -0.50297  -0.49875
 Alpha  occ. eigenvalues --   -0.49695  -0.49287  -0.48922  -0.48757  -0.48446
 Alpha  occ. eigenvalues --   -0.48282  -0.48238  -0.48105  -0.47977  -0.47725
 Alpha  occ. eigenvalues --   -0.47417  -0.47265  -0.46910  -0.46855  -0.46653
 Alpha  occ. eigenvalues --   -0.46014  -0.45726  -0.45713  -0.45559  -0.45374
 Alpha  occ. eigenvalues --   -0.44993  -0.44867  -0.44824  -0.44100  -0.44050
 Alpha  occ. eigenvalues --   -0.43626  -0.43563  -0.43333  -0.42515  -0.42241
 Alpha  occ. eigenvalues --   -0.41909  -0.41395  -0.40960  -0.39190  -0.39086
 Alpha  occ. eigenvalues --   -0.38547  -0.36743  -0.36151  -0.35186  -0.34298
 Alpha  occ. eigenvalues --   -0.33595  -0.32098  -0.32044  -0.31402  -0.26522
 Alpha  occ. eigenvalues --   -0.21738
 Alpha virt. eigenvalues --   -0.08168  -0.02118  -0.00883   0.01037   0.01361
 Alpha virt. eigenvalues --    0.02162   0.03321   0.03540   0.05058   0.05585
 Alpha virt. eigenvalues --    0.06390   0.06828   0.07207   0.07501   0.07940

 Mulliken charges:
               1
     1  Mg   0.419708
     2  C   -0.053948
     3  C   -0.099803
     4  C   -0.043106
     5  C   -0.109460
     6  N   -0.270373
     7  C    0.169885
     8  C   -0.001897
     9  C    0.010205
    10  C    0.120658
    11  C   -0.048567
    12  C   -0.012333
    13  C    0.014743
    14  C    0.463192
    15  O   -0.510191
    16  O   -0.271406
    17  N   -0.314884
    18  C    0.100623
    19  C   -0.031473
    20  C   -0.069818
    21  C    0.120345
    22  C   -0.056822
    23  C    0.328440
    24  O   -0.545921
    25  C   -0.030337
    26  N   -0.275387
    27  C    0.090425
    28  C    0.016237
    29  C    0.005724
    30  C    0.162123
    31  C   -0.057973
    32  C   -0.030732
    33  C   -0.059576
    34  N   -0.345393
    35  C    0.138365
    36  C    0.057865
    37  C   -0.027585
    38  C    0.134909
    39  C   -0.040199
    40  C    0.340247
    41  O   -0.509270
    42  C    0.051042
    43  C    0.493471
    44  O   -0.525259
    45  O   -0.246580
    46  C    0.071692
    47  C    0.103772
    48  C   -0.087686
    49  C   -0.019111
    50  C   -0.047004
    51  C   -0.021561
    52  C   -0.046974
    53  C   -0.047466
    54  C   -0.009688
    55  C   -0.057923
    56  C   -0.040767
    57  C   -0.033039
    58  C   -0.032968
    59  C   -0.019660
    60  C   -0.069599
    61  C   -0.029260
    62  C   -0.038217
    63  C   -0.045407
    64  C   -0.000372
    65  C   -0.045738
    66  C   -0.050219
    67  H    0.004933
    68  H    0.036120
    69  H    0.043512
    70  H    0.019060
    71  H    0.026550
    72  H    0.027125
    73  H    0.033501
    74  H    0.012055
    75  H    0.036819
    76  H    0.041519
    77  H    0.039640
    78  H    0.028595
    79  H    0.011314
    80  H    0.032444
    81  H    0.031909
    82  H    0.037227
    83  H    0.043973
    84  H    0.033863
    85  H    0.033822
    86  H    0.039793
    87  H    0.020675
    88  H    0.015327
    89  H    0.040152
    90  H    0.036407
    91  H    0.017903
    92  H    0.021339
    93  H    0.013417
    94  H    0.019132
    95  H    0.019237
    96  H    0.044666
    97  H    0.037601
    98  H    0.056144
    99  H    0.046146
   100  H    0.021671
   101  H    0.053742
   102  H    0.057371
   103  H    0.064436
   104  H    0.027313
   105  H    0.018524
   106  H    0.031413
   107  H    0.022739
   108  H    0.025498
   109  H    0.022904
   110  H    0.025507
   111  H    0.024765
   112  H    0.007072
   113  H    0.028986
   114  H    0.024922
   115  H    0.014473
   116  H    0.012326
   117  H    0.020930
   118  H    0.022989
   119  H    0.008565
   120  H    0.020090
   121  H    0.025495
   122  H    0.018781
   123  H    0.020405
   124  H    0.028137
   125  H    0.011083
   126  H    0.011747
   127  H    0.027348
   128  H    0.022775
   129  H    0.024899
   130  H    0.015782
   131  H    0.016863
   132  H    0.018045
   133  H    0.014901
   134  H    0.015735
   135  H    0.005790
   136  H    0.022825
   137  H    0.017637
   138  H    0.015124
   139  H    0.012254
   140  H    0.013498
 Sum of Mulliken charges =  -0.00000

 Dipole moment (field-independent basis, Debye):
    X=              2.6865    Y=             -0.5182    Z=              3.6819  Tot=              4.5872
 N-N= 4.230692321643D+03 E-N= 0.000000000000D+00  KE=-9.136019548112D+03
 Leave Link  601 at Wed May  4 09:18:29 2022, MaxMem=  6710886400 cpu:               1.0 elap:               0.1
 (Enter /sw/apps/gaussian-16.0/g16/l9999.exe)
 1\1\GINC-BP1-COMPUTE065\SP\RZINDO CIS\STO-3G\C55H74Mg1N4O6\OF15641\04-
 May-2022\0\\#p ZINDO=(nstates=5)\\step_151_chromophore_22 ZINDO\\0,1\M
 g,0,8.724,48.259,24.786\C,0,6.503,48.523,27.474\C,0,11.146,49.438,26.6
 11\C,0,10.782,47.843,22.126\C,0,5.9,47.507,22.711\N,0,8.794,48.886,26.
 863\C,0,7.798,48.932,27.735\C,0,8.36,49.614,28.94\C,0,9.618,50.408,28.
 383\C,0,9.878,49.542,27.23\C,0,9.423,51.886,27.925\C,0,8.673,48.543,30
 .068\C,0,8.606,49.166,31.433\C,0,7.755,48.525,32.492\O,0,6.542,48.686,

 Normal termination of Gaussian 16 at Wed May  4 09:18:29 2022.
