 Gaussian 16, Revision A.03,
 Gaussian 16:  ES64L-G16RevA.03 25-Dec-2016

 ------------------------------
 #p blyp/Def2SVP td=(nstates=5)
 ------------------------------

 ---------------------------------------------------
 step_1201_chromophore_20 TDDFT with blyp functional
 ---------------------------------------------------
 Symbolic Z-matrix:
 Charge =  0 Multiplicity = 1

                         Standard orientation:
 ---------------------------------------------------------------------
 Center     Atomic      Atomic             Coordinates (Angstroms)
 Number     Number       Type             X           Y           Z
 ---------------------------------------------------------------------
      1         12           0        4.223847    1.459007   -0.681627
      2          6           0        4.096541   -1.976377   -0.840938
      3          6           0        1.950506    1.472960   -3.338668
      4          6           0        3.488490    4.730914   -0.030665
      5          6           0        6.086161    1.248690    2.273311
      6          7           0        3.164584   -0.072755   -1.867047
      7          6           0        3.204316   -1.436327   -1.723796
      8          6           0        2.349771   -2.178917   -2.685427
      9          6           0        2.040559   -1.036623   -3.723511
     10          6           0        2.457859    0.245347   -2.972738
     11          6           0        2.691301   -1.291259   -5.125365
     12          6           0        1.081590   -2.754562   -2.068802
     13          6           0        0.377680   -3.854550   -2.860254
     14          6           0       -0.405714   -4.967896   -2.117404
     15          8           0       -0.388358   -6.198805   -2.343299
     16          8           0       -1.030740   -4.446646   -1.029124
     17          7           0        2.897453    2.915551   -1.474954
     18          6           0        2.031639    2.707177   -2.582572
     19          6           0        1.103157    3.847071   -2.682045
     20          6           0        1.464383    4.826672   -1.705704
     21          6           0        2.663036    4.192638   -0.994152
     22          6           0       -0.008119    3.816677   -3.625901
     23          6           0        0.749056    6.097899   -1.407483
     24          8           0       -0.178654    6.472186   -2.077958
     25          6           0        1.035298    6.942261   -0.204092
     26          7           0        4.657593    2.738341    0.944735
     27          6           0        4.397327    4.057686    0.851051
     28          6           0        5.146860    4.887151    1.922546
     29          6           0        6.027019    3.766351    2.669298
     30          6           0        5.488966    2.505391    1.984118
     31          6           0        6.049599    6.059353    1.341875
     32          6           0        5.856713    3.740870    4.212163
     33          6           0        7.183074    3.367672    4.935498
     34          7           0        5.122043   -0.052756    0.435137
     35          6           0        5.884185    0.027912    1.617616
     36          6           0        6.329918   -1.377094    1.892090
     37          6           0        5.639919   -2.132145    0.960176
     38          6           0        4.924590   -1.302521    0.054856
     39          6           0        7.054601   -1.802922    3.090747
     40          6           0        5.488682   -3.476486    0.565392
     41          8           0        6.070969   -4.444937    1.036144
     42          6           0        4.488400   -3.517177   -0.641814
     43          6           0        3.400649   -4.449685   -0.381402
     44          8           0        2.692907   -4.387886    0.595994
     45          8           0        3.395842   -5.492984   -1.294492
     46          6           0        2.512456   -6.579602   -0.787719
     47          6           0       -1.827017   -5.254110   -0.142848
     48          6           0       -2.890506   -4.440056    0.453129
     49          6           0       -4.153454   -4.761453    0.888000
     50          6           0       -4.414242   -6.205356    1.207265
     51          6           0       -5.206335   -3.705036    1.048454
     52          6           0       -4.889558   -2.825054    2.242635
     53          6           0       -5.998513   -2.918733    3.327818
     54          6           0       -6.543707   -1.579019    3.787339
     55          6           0       -7.173069   -1.829949    5.195469
     56          6           0       -7.579285   -0.960283    2.787266
     57          6           0       -7.369102    0.534258    2.611148
     58          6           0       -6.487328    0.771636    1.379870
     59          6           0       -7.415925    0.953737    0.131155
     60          6           0       -7.214139   -0.136761   -0.970183
     61          6           0       -7.372024    2.339017   -0.571264
     62          6           0       -8.461262    3.270932    0.002449
     63          6           0       -9.428942    3.773547   -1.046693
     64          6           0      -10.905929    3.593321   -0.636943
     65          6           0      -11.542460    2.279100   -1.213246
     66          6           0      -11.865039    4.691265   -0.990210
     67          1           0        1.319073    1.389669   -4.225511
     68          1           0        3.403272    5.776066    0.276462
     69          1           0        6.706575    1.098112    3.158874
     70          1           0        2.913945   -2.997548   -3.133726
     71          1           0        0.977363   -0.920356   -3.935875
     72          1           0        3.177541   -0.345555   -5.368341
     73          1           0        2.002034   -1.508512   -5.941059
     74          1           0        3.361863   -2.132147   -4.948943
     75          1           0        0.359742   -1.938004   -2.085691
     76          1           0        1.175386   -2.986541   -1.007782
     77          1           0        1.073606   -4.271532   -3.589153
     78          1           0       -0.412692   -3.393724   -3.452431
     79          1           0       -0.931531    3.884468   -3.051990
     80          1           0       -0.088423    2.910294   -4.226120
     81          1           0        0.046513    4.457037   -4.505847
     82          1           0        2.096476    7.182901   -0.146750
     83          1           0        0.577622    6.588448    0.719123
     84          1           0        0.558964    7.879285   -0.494069
     85          1           0        4.224763    5.112918    2.460320
     86          1           0        7.089466    3.838401    2.436595
     87          1           0        6.940831    6.095252    1.969117
     88          1           0        5.581800    7.042441    1.292653
     89          1           0        6.294315    5.816976    0.307923
     90          1           0        5.138253    2.939389    4.378722
     91          1           0        5.479831    4.702778    4.560417
     92          1           0        7.115546    2.279804    4.932627
     93          1           0        7.173648    3.654247    5.987368
     94          1           0        8.129262    3.649700    4.473408
     95          1           0        6.293068   -1.889222    3.865897
     96          1           0        7.806368   -1.166165    3.557151
     97          1           0        7.458665   -2.807003    2.964077
     98          1           0        4.925555   -3.842249   -1.585467
     99          1           0        3.021277   -6.981111    0.088113
    100          1           0        2.398405   -7.318096   -1.580588
    101          1           0        1.518953   -6.182783   -0.580733
    102          1           0       -1.180808   -5.715390    0.603042
    103          1           0       -2.299086   -6.055144   -0.712805
    104          1           0       -2.753508   -3.390987    0.187521
    105          1           0       -5.332489   -6.668058    0.844792
    106          1           0       -4.228412   -6.411562    2.260825
    107          1           0       -3.684724   -6.905694    0.799827
    108          1           0       -6.066760   -4.365081    1.159196
    109          1           0       -5.389171   -3.125419    0.143768
    110          1           0       -4.806655   -1.815138    1.838436
    111          1           0       -3.942565   -3.140089    2.679387
    112          1           0       -5.552338   -3.391509    4.202410
    113          1           0       -6.842781   -3.480966    2.927313
    114          1           0       -5.770145   -0.879229    4.100943
    115          1           0       -6.400441   -2.204664    5.866514
    116          1           0       -8.016708   -2.514191    5.106072
    117          1           0       -7.472944   -0.854109    5.575939
    118          1           0       -8.595573   -1.153287    3.133228
    119          1           0       -7.393456   -1.444662    1.828973
    120          1           0       -6.897466    1.023726    3.462962
    121          1           0       -8.312469    1.073307    2.521956
    122          1           0       -5.733410    0.031589    1.111378
    123          1           0       -6.106885    1.771153    1.587405
    124          1           0       -8.416922    0.737211    0.505681
    125          1           0       -6.552176   -0.923531   -0.608409
    126          1           0       -6.795535    0.308459   -1.872901
    127          1           0       -8.132800   -0.679240   -1.192836
    128          1           0       -7.491230    2.186000   -1.643284
    129          1           0       -6.431134    2.861634   -0.394616
    130          1           0       -7.943106    4.180906    0.305489
    131          1           0       -9.022535    2.887496    0.853942
    132          1           0       -9.396876    3.154398   -1.942735
    133          1           0       -9.262390    4.833735   -1.240370
    134          1           0      -10.968434    3.503318    0.447025
    135          1           0      -12.349915    1.867884   -0.607762
    136          1           0      -10.758893    1.544929   -1.400347
    137          1           0      -11.987855    2.466906   -2.189430
    138          1           0      -12.853249    4.302734   -1.237419
    139          1           0      -11.428330    5.243070   -1.822098
    140          1           0      -11.966573    5.322363   -0.106831
 ---------------------------------------------------------------------

 SCF Done:  E(RB-LYP) =  -3007.35652183     A.U. after   20 cycles

 Excitation energies and oscillator strengths:

 Excited State   1:      Singlet-A      1.7936 eV  691.27 nm  f=0.2952  <S**2>=0.000
     245 -> 248       -0.19104
     246 -> 247        0.68697
     246 <- 247       -0.14758
 This state for optimization and/or second-order correction.
 Total Energy, E(TD-HF/TD-DFT) =  -3007.29060954
 Copying the excited state density for this state as the 1-particle RhoCI density.

 Excited State   2:      Singlet-A      1.8690 eV  663.37 nm  f=0.0007  <S**2>=0.000
     244 -> 247        0.70568

 Excited State   3:      Singlet-A      1.9102 eV  649.07 nm  f=0.0080  <S**2>=0.000
     243 -> 247        0.63593
     245 -> 247       -0.29216

 Excited State   4:      Singlet-A      2.0104 eV  616.72 nm  f=0.0001  <S**2>=0.000
     242 -> 247        0.70628

 Excited State   5:      Singlet-A      2.0620 eV  601.28 nm  f=0.0419  <S**2>=0.000
     243 -> 247        0.29362
     245 -> 247        0.56311
     246 -> 248        0.27506

 The electronic state is 1-A.
 Alpha  occ. eigenvalues --  -46.27674 -18.82320 -18.81663 -18.76729 -18.76260
 Alpha  occ. eigenvalues --  -18.75372 -18.75059 -14.03742 -14.03432 -14.01902
 Alpha  occ. eigenvalues --  -14.00866 -10.04842 -10.02996  -9.99302  -9.99041
 Alpha  occ. eigenvalues --   -9.97761  -9.96994  -9.96889  -9.96634  -9.96525
 Alpha  occ. eigenvalues --   -9.96481  -9.96417  -9.96358  -9.95917  -9.94798
 Alpha  occ. eigenvalues --   -9.94518  -9.94339  -9.94242  -9.94173  -9.94128
 Alpha  occ. eigenvalues --   -9.94093  -9.94008  -9.93775  -9.93757  -9.93582
 Alpha  occ. eigenvalues --   -9.93343  -9.93314  -9.93246  -9.93158  -9.93087
 Alpha  occ. eigenvalues --   -9.92850  -9.92829  -9.92773  -9.92427  -9.92229
 Alpha  occ. eigenvalues --   -9.92033  -9.91738  -9.91591  -9.91511  -9.91422
 Alpha  occ. eigenvalues --   -9.91322  -9.91184  -9.91151  -9.91105  -9.90956
 Alpha  occ. eigenvalues --   -9.90944  -9.90903  -9.90842  -9.90796  -9.90601
 Alpha  occ. eigenvalues --   -9.90572  -9.90563  -9.90553  -9.90527  -9.90516
 Alpha  occ. eigenvalues --   -9.90167  -2.92288  -1.72694  -1.72177  -1.71999
 Alpha  occ. eigenvalues --   -0.98091  -0.97261  -0.92456  -0.91043  -0.89540
 Alpha  occ. eigenvalues --   -0.88875  -0.87130  -0.86803  -0.85587  -0.83782
 Alpha  occ. eigenvalues --   -0.75238  -0.74090  -0.73603  -0.73158  -0.72540
 Alpha  occ. eigenvalues --   -0.72311  -0.71987  -0.71228  -0.70959  -0.70564
 Alpha  occ. eigenvalues --   -0.69883  -0.69645  -0.68309  -0.67767  -0.67596
 Alpha  occ. eigenvalues --   -0.66921  -0.65913  -0.65437  -0.65029  -0.64894
 Alpha  occ. eigenvalues --   -0.64503  -0.63012  -0.62393  -0.61878  -0.60459
 Alpha  occ. eigenvalues --   -0.60348  -0.60239  -0.59525  -0.59433  -0.58930
 Alpha  occ. eigenvalues --   -0.58358  -0.57601  -0.57192  -0.55732  -0.55187
 Alpha  occ. eigenvalues --   -0.54005  -0.53590  -0.52976  -0.52427  -0.52285
 Alpha  occ. eigenvalues --   -0.51853  -0.51481  -0.50929  -0.50468  -0.50399
 Alpha  occ. eigenvalues --   -0.49751  -0.48758  -0.48127  -0.47595  -0.47061
 Alpha  occ. eigenvalues --   -0.46339  -0.46036  -0.45871  -0.45419  -0.44499
 Alpha  occ. eigenvalues --   -0.44033  -0.43724  -0.43533  -0.42977  -0.42417
 Alpha  occ. eigenvalues --   -0.42199  -0.41800  -0.41579  -0.41507  -0.41139
 Alpha  occ. eigenvalues --   -0.40959  -0.40792  -0.40634  -0.40333  -0.40173
 Alpha  occ. eigenvalues --   -0.39955  -0.39841  -0.39730  -0.39401  -0.39133
 Alpha  occ. eigenvalues --   -0.39016  -0.38876  -0.38483  -0.38407  -0.38342
 Alpha  occ. eigenvalues --   -0.38215  -0.38116  -0.37944  -0.37790  -0.37645
 Alpha  occ. eigenvalues --   -0.37253  -0.37134  -0.36851  -0.36654  -0.36475
 Alpha  occ. eigenvalues --   -0.36327  -0.36196  -0.36076  -0.35827  -0.35565
 Alpha  occ. eigenvalues --   -0.35424  -0.35243  -0.35104  -0.34944  -0.34727
 Alpha  occ. eigenvalues --   -0.34557  -0.34366  -0.34292  -0.34193  -0.34150
 Alpha  occ. eigenvalues --   -0.33821  -0.33690  -0.33416  -0.33315  -0.33112
 Alpha  occ. eigenvalues --   -0.33074  -0.32851  -0.32849  -0.32681  -0.32543
 Alpha  occ. eigenvalues --   -0.32444  -0.32135  -0.31698  -0.31592  -0.31537
 Alpha  occ. eigenvalues --   -0.31307  -0.30881  -0.30797  -0.30698  -0.30539
 Alpha  occ. eigenvalues --   -0.30461  -0.30259  -0.30135  -0.30046  -0.29830
 Alpha  occ. eigenvalues --   -0.29655  -0.29590  -0.29403  -0.29189  -0.29094
 Alpha  occ. eigenvalues --   -0.28941  -0.28629  -0.28374  -0.28164  -0.27841
 Alpha  occ. eigenvalues --   -0.27497  -0.27217  -0.26683  -0.26516  -0.26037
 Alpha  occ. eigenvalues --   -0.25991  -0.25973  -0.25849  -0.25469  -0.25283
 Alpha  occ. eigenvalues --   -0.25180  -0.24697  -0.24621  -0.24027  -0.23941
 Alpha  occ. eigenvalues --   -0.23452  -0.22541  -0.21504  -0.21455  -0.20764
 Alpha  occ. eigenvalues --   -0.20504  -0.19050  -0.18648  -0.18445  -0.17686
 Alpha  occ. eigenvalues --   -0.15922
 Alpha virt. eigenvalues --   -0.11662  -0.07563  -0.06050  -0.04790  -0.03664
 Alpha virt. eigenvalues --   -0.03384  -0.02840  -0.02455  -0.01916   0.00281
 Alpha virt. eigenvalues --    0.01161   0.01678   0.02306   0.02528   0.02980

 Mulliken charges:
               1
     1  Mg   0.694820
     2  C    0.011491
     3  C   -0.057648
     4  C   -0.044335
     5  C   -0.046942
     6  N   -0.212642
     7  C   -0.090623
     8  C    0.022570
     9  C   -0.036588
    10  C    0.031136
    11  C    0.135454
    12  C    0.123843
    13  C    0.132870
    14  C    0.094662
    15  O   -0.221316
    16  O   -0.265018
    17  N   -0.307311
    18  C    0.149727
    19  C   -0.116505
    20  C    0.068902
    21  C    0.166091
    22  C    0.190177
    23  C   -0.122581
    24  O   -0.153157
    25  C    0.121611
    26  N   -0.195177
    27  C   -0.064421
    28  C    0.043161
    29  C   -0.013151
    30  C    0.037080
    31  C    0.125919
    32  C    0.094718
    33  C    0.062147
    34  N   -0.275335
    35  C    0.056362
    36  C   -0.128951
    37  C    0.094911
    38  C    0.094722
    39  C    0.147967
    40  C   -0.045430
    41  O   -0.135273
    42  C    0.110443
    43  C    0.075917
    44  O   -0.181767
    45  O   -0.288732
    46  C    0.217591
    47  C    0.332593
    48  C   -0.100063
    49  C   -0.201616
    50  C    0.129356
    51  C    0.146985
    52  C    0.113471
    53  C    0.108724
    54  C   -0.092771
    55  C    0.087717
    56  C    0.143347
    57  C    0.059575
    58  C    0.135816
    59  C   -0.123381
    60  C    0.099677
    61  C    0.128605
    62  C    0.080779
    63  C    0.124553
    64  C   -0.144209
    65  C    0.082969
    66  C    0.131094
    67  H   -0.056888
    68  H   -0.080531
    69  H   -0.076104
    70  H   -0.018967
    71  H   -0.031378
    72  H   -0.010343
    73  H   -0.002386
    74  H   -0.004562
    75  H   -0.034618
    76  H    0.015360
    77  H   -0.009293
    78  H   -0.003439
    79  H    0.015503
    80  H   -0.055114
    81  H    0.000569
    82  H    0.001900
    83  H    0.023647
    84  H   -0.017179
    85  H   -0.015515
    86  H   -0.015116
    87  H    0.003131
    88  H   -0.000463
    89  H   -0.001349
    90  H   -0.013911
    91  H   -0.012633
    92  H   -0.009346
    93  H   -0.011699
    94  H    0.000568
    95  H    0.006133
    96  H   -0.008018
    97  H    0.009098
    98  H   -0.013314
    99  H    0.018214
   100  H    0.014976
   101  H    0.027275
   102  H    0.007220
   103  H    0.005762
   104  H   -0.037517
   105  H   -0.003728
   106  H    0.000766
   107  H   -0.035695
   108  H   -0.036916
   109  H   -0.009712
   110  H   -0.027871
   111  H   -0.015128
   112  H   -0.042546
   113  H   -0.029766
   114  H   -0.039938
   115  H   -0.016574
   116  H   -0.015023
   117  H   -0.025643
   118  H   -0.037239
   119  H   -0.033780
   120  H   -0.037435
   121  H   -0.035667
   122  H   -0.022193
   123  H   -0.047294
   124  H   -0.029229
   125  H   -0.035453
   126  H   -0.015300
   127  H   -0.016262
   128  H   -0.029305
   129  H   -0.031811
   130  H   -0.043047
   131  H   -0.011992
   132  H   -0.035366
   133  H   -0.034269
   134  H   -0.041544
   135  H   -0.011791
   136  H   -0.022960
   137  H   -0.022343
   138  H   -0.020878
   139  H   -0.018196
   140  H   -0.023150
 Sum of Mulliken charges =  -0.00000

 Dipole moment (field-independent basis, Debye):
    X=              0.6416    Y=              3.5574    Z=              0.9240  Tot=              3.7310
 Quadrupole moment (field-independent basis, Debye-Ang):
   XX=           -389.8491   YY=           -434.5775   ZZ=           -392.4599
   XY=             46.9260   XZ=             -1.1206   YZ=             17.0214

 Normal termination of Gaussian 16 at Wed Apr 27 14:59:01 2022.
