 Gaussian 16, Revision A.03,
 Gaussian 16:  ES64L-G16RevA.03 25-Dec-2016

 -----------------------------------
 #p cam-b3lyp/Def2SVP td=(nstates=5)
 -----------------------------------

 --------------------------------------------------------
 step_1201_chromophore_20 TDDFT with cam-b3lyp functional
 --------------------------------------------------------
 Symbolic Z-matrix:
 Charge =  0 Multiplicity = 1

                         Standard orientation:
 ---------------------------------------------------------------------
 Center     Atomic      Atomic             Coordinates (Angstroms)
 Number     Number       Type             X           Y           Z
 ---------------------------------------------------------------------
      1         12           0        4.223847    1.459007   -0.681627
      2          6           0        4.096541   -1.976377   -0.840938
      3          6           0        1.950506    1.472960   -3.338668
      4          6           0        3.488490    4.730914   -0.030665
      5          6           0        6.086161    1.248690    2.273311
      6          7           0        3.164584   -0.072755   -1.867047
      7          6           0        3.204316   -1.436327   -1.723796
      8          6           0        2.349771   -2.178917   -2.685427
      9          6           0        2.040559   -1.036623   -3.723511
     10          6           0        2.457859    0.245347   -2.972738
     11          6           0        2.691301   -1.291259   -5.125365
     12          6           0        1.081590   -2.754562   -2.068802
     13          6           0        0.377680   -3.854550   -2.860254
     14          6           0       -0.405714   -4.967896   -2.117404
     15          8           0       -0.388358   -6.198805   -2.343299
     16          8           0       -1.030740   -4.446646   -1.029124
     17          7           0        2.897453    2.915551   -1.474954
     18          6           0        2.031639    2.707177   -2.582572
     19          6           0        1.103157    3.847071   -2.682045
     20          6           0        1.464383    4.826672   -1.705704
     21          6           0        2.663036    4.192638   -0.994152
     22          6           0       -0.008119    3.816677   -3.625901
     23          6           0        0.749056    6.097899   -1.407483
     24          8           0       -0.178654    6.472186   -2.077958
     25          6           0        1.035298    6.942261   -0.204092
     26          7           0        4.657593    2.738341    0.944735
     27          6           0        4.397327    4.057686    0.851051
     28          6           0        5.146860    4.887151    1.922546
     29          6           0        6.027019    3.766351    2.669298
     30          6           0        5.488966    2.505391    1.984118
     31          6           0        6.049599    6.059353    1.341875
     32          6           0        5.856713    3.740870    4.212163
     33          6           0        7.183074    3.367672    4.935498
     34          7           0        5.122043   -0.052756    0.435137
     35          6           0        5.884185    0.027912    1.617616
     36          6           0        6.329918   -1.377094    1.892090
     37          6           0        5.639919   -2.132145    0.960176
     38          6           0        4.924590   -1.302521    0.054856
     39          6           0        7.054601   -1.802922    3.090747
     40          6           0        5.488682   -3.476486    0.565392
     41          8           0        6.070969   -4.444937    1.036144
     42          6           0        4.488400   -3.517177   -0.641814
     43          6           0        3.400649   -4.449685   -0.381402
     44          8           0        2.692907   -4.387886    0.595994
     45          8           0        3.395842   -5.492984   -1.294492
     46          6           0        2.512456   -6.579602   -0.787719
     47          6           0       -1.827017   -5.254110   -0.142848
     48          6           0       -2.890506   -4.440056    0.453129
     49          6           0       -4.153454   -4.761453    0.888000
     50          6           0       -4.414242   -6.205356    1.207265
     51          6           0       -5.206335   -3.705036    1.048454
     52          6           0       -4.889558   -2.825054    2.242635
     53          6           0       -5.998513   -2.918733    3.327818
     54          6           0       -6.543707   -1.579019    3.787339
     55          6           0       -7.173069   -1.829949    5.195469
     56          6           0       -7.579285   -0.960283    2.787266
     57          6           0       -7.369102    0.534258    2.611148
     58          6           0       -6.487328    0.771636    1.379870
     59          6           0       -7.415925    0.953737    0.131155
     60          6           0       -7.214139   -0.136761   -0.970183
     61          6           0       -7.372024    2.339017   -0.571264
     62          6           0       -8.461262    3.270932    0.002449
     63          6           0       -9.428942    3.773547   -1.046693
     64          6           0      -10.905929    3.593321   -0.636943
     65          6           0      -11.542460    2.279100   -1.213246
     66          6           0      -11.865039    4.691265   -0.990210
     67          1           0        1.319073    1.389669   -4.225511
     68          1           0        3.403272    5.776066    0.276462
     69          1           0        6.706575    1.098112    3.158874
     70          1           0        2.913945   -2.997548   -3.133726
     71          1           0        0.977363   -0.920356   -3.935875
     72          1           0        3.177541   -0.345555   -5.368341
     73          1           0        2.002034   -1.508512   -5.941059
     74          1           0        3.361863   -2.132147   -4.948943
     75          1           0        0.359742   -1.938004   -2.085691
     76          1           0        1.175386   -2.986541   -1.007782
     77          1           0        1.073606   -4.271532   -3.589153
     78          1           0       -0.412692   -3.393724   -3.452431
     79          1           0       -0.931531    3.884468   -3.051990
     80          1           0       -0.088423    2.910294   -4.226120
     81          1           0        0.046513    4.457037   -4.505847
     82          1           0        2.096476    7.182901   -0.146750
     83          1           0        0.577622    6.588448    0.719123
     84          1           0        0.558964    7.879285   -0.494069
     85          1           0        4.224763    5.112918    2.460320
     86          1           0        7.089466    3.838401    2.436595
     87          1           0        6.940831    6.095252    1.969117
     88          1           0        5.581800    7.042441    1.292653
     89          1           0        6.294315    5.816976    0.307923
     90          1           0        5.138253    2.939389    4.378722
     91          1           0        5.479831    4.702778    4.560417
     92          1           0        7.115546    2.279804    4.932627
     93          1           0        7.173648    3.654247    5.987368
     94          1           0        8.129262    3.649700    4.473408
     95          1           0        6.293068   -1.889222    3.865897
     96          1           0        7.806368   -1.166165    3.557151
     97          1           0        7.458665   -2.807003    2.964077
     98          1           0        4.925555   -3.842249   -1.585467
     99          1           0        3.021277   -6.981111    0.088113
    100          1           0        2.398405   -7.318096   -1.580588
    101          1           0        1.518953   -6.182783   -0.580733
    102          1           0       -1.180808   -5.715390    0.603042
    103          1           0       -2.299086   -6.055144   -0.712805
    104          1           0       -2.753508   -3.390987    0.187521
    105          1           0       -5.332489   -6.668058    0.844792
    106          1           0       -4.228412   -6.411562    2.260825
    107          1           0       -3.684724   -6.905694    0.799827
    108          1           0       -6.066760   -4.365081    1.159196
    109          1           0       -5.389171   -3.125419    0.143768
    110          1           0       -4.806655   -1.815138    1.838436
    111          1           0       -3.942565   -3.140089    2.679387
    112          1           0       -5.552338   -3.391509    4.202410
    113          1           0       -6.842781   -3.480966    2.927313
    114          1           0       -5.770145   -0.879229    4.100943
    115          1           0       -6.400441   -2.204664    5.866514
    116          1           0       -8.016708   -2.514191    5.106072
    117          1           0       -7.472944   -0.854109    5.575939
    118          1           0       -8.595573   -1.153287    3.133228
    119          1           0       -7.393456   -1.444662    1.828973
    120          1           0       -6.897466    1.023726    3.462962
    121          1           0       -8.312469    1.073307    2.521956
    122          1           0       -5.733410    0.031589    1.111378
    123          1           0       -6.106885    1.771153    1.587405
    124          1           0       -8.416922    0.737211    0.505681
    125          1           0       -6.552176   -0.923531   -0.608409
    126          1           0       -6.795535    0.308459   -1.872901
    127          1           0       -8.132800   -0.679240   -1.192836
    128          1           0       -7.491230    2.186000   -1.643284
    129          1           0       -6.431134    2.861634   -0.394616
    130          1           0       -7.943106    4.180906    0.305489
    131          1           0       -9.022535    2.887496    0.853942
    132          1           0       -9.396876    3.154398   -1.942735
    133          1           0       -9.262390    4.833735   -1.240370
    134          1           0      -10.968434    3.503318    0.447025
    135          1           0      -12.349915    1.867884   -0.607762
    136          1           0      -10.758893    1.544929   -1.400347
    137          1           0      -11.987855    2.466906   -2.189430
    138          1           0      -12.853249    4.302734   -1.237419
    139          1           0      -11.428330    5.243070   -1.822098
    140          1           0      -11.966573    5.322363   -0.106831
 ---------------------------------------------------------------------

 SCF Done:  E(RCAM-B3LYP) =  -3007.15705720     A.U. after   19 cycles

 Excitation energies and oscillator strengths:

 Excited State   1:      Singlet-A      1.6913 eV  733.07 nm  f=0.3671  <S**2>=0.000
     245 -> 248        0.17638
     246 -> 247        0.68568
     245 <- 248        0.10604
 This state for optimization and/or second-order correction.
 Total Energy, E(TD-HF/TD-DFT) =  -3007.09490263
 Copying the excited state density for this state as the 1-particle RhoCI density.

 Excited State   2:      Singlet-A      2.2686 eV  546.53 nm  f=0.0493  <S**2>=0.000
     245 -> 247        0.60376
     246 -> 248       -0.35431

 Excited State   3:      Singlet-A      3.3771 eV  367.14 nm  f=0.5215  <S**2>=0.000
     241 -> 247       -0.10765
     242 -> 247       -0.29771
     245 -> 247        0.29303
     246 -> 248        0.55129

 Excited State   4:      Singlet-A      3.4491 eV  359.47 nm  f=0.0617  <S**2>=0.000
     242 -> 247       -0.39168
     243 -> 247        0.52571
     245 -> 247       -0.10291
     246 -> 248       -0.14978

 Excited State   5:      Singlet-A      3.5347 eV  350.77 nm  f=0.0202  <S**2>=0.000
     241 -> 247        0.53990
     241 -> 249        0.31096
     241 -> 251       -0.18716
     243 -> 247       -0.15054

 The electronic state is 1-A.
 Alpha  occ. eigenvalues --  -46.89268 -19.25169 -19.24585 -19.19671 -19.19403
 Alpha  occ. eigenvalues --  -19.18459 -19.18344 -14.42683 -14.42200 -14.40564
 Alpha  occ. eigenvalues --  -14.39203 -10.40230 -10.38429 -10.34561 -10.34171
 Alpha  occ. eigenvalues --  -10.31696 -10.31612 -10.31328 -10.31240 -10.31087
 Alpha  occ. eigenvalues --  -10.31044 -10.30759 -10.30340 -10.29954 -10.28979
 Alpha  occ. eigenvalues --  -10.28853 -10.28637 -10.28348 -10.28276 -10.28223
 Alpha  occ. eigenvalues --  -10.28214 -10.28109 -10.28061 -10.27900 -10.27774
 Alpha  occ. eigenvalues --  -10.27468 -10.27415 -10.27369 -10.27338 -10.26943
 Alpha  occ. eigenvalues --  -10.26886 -10.26678 -10.26609 -10.26050 -10.25782
 Alpha  occ. eigenvalues --  -10.25674 -10.25660 -10.25633 -10.25252 -10.25099
 Alpha  occ. eigenvalues --  -10.25053 -10.24868 -10.24789 -10.24788 -10.24785
 Alpha  occ. eigenvalues --  -10.24569 -10.24549 -10.24504 -10.24417 -10.24335
 Alpha  occ. eigenvalues --  -10.24232 -10.24181 -10.24176 -10.24160 -10.24149
 Alpha  occ. eigenvalues --  -10.23729  -3.17780  -1.92663  -1.92239  -1.92076
 Alpha  occ. eigenvalues --   -1.16484  -1.15848  -1.11097  -1.09254  -1.07465
 Alpha  occ. eigenvalues --   -1.06712  -1.04855  -1.04495  -1.03028  -1.01430
 Alpha  occ. eigenvalues --   -0.92244  -0.90969  -0.90410  -0.89967  -0.89239
 Alpha  occ. eigenvalues --   -0.89033  -0.88704  -0.87816  -0.87530  -0.87096
 Alpha  occ. eigenvalues --   -0.86507  -0.86015  -0.84611  -0.83990  -0.83795
 Alpha  occ. eigenvalues --   -0.83012  -0.82095  -0.81411  -0.80957  -0.80750
 Alpha  occ. eigenvalues --   -0.80307  -0.78639  -0.78095  -0.77483  -0.75801
 Alpha  occ. eigenvalues --   -0.75676  -0.75551  -0.74850  -0.74738  -0.74165
 Alpha  occ. eigenvalues --   -0.73346  -0.72526  -0.72136  -0.70557  -0.69772
 Alpha  occ. eigenvalues --   -0.68691  -0.68094  -0.67443  -0.66822  -0.66386
 Alpha  occ. eigenvalues --   -0.66044  -0.65755  -0.65054  -0.64398  -0.64209
 Alpha  occ. eigenvalues --   -0.63807  -0.62692  -0.61982  -0.61346  -0.60702
 Alpha  occ. eigenvalues --   -0.59835  -0.59534  -0.59430  -0.58697  -0.57981
 Alpha  occ. eigenvalues --   -0.57451  -0.57176  -0.56892  -0.56151  -0.55685
 Alpha  occ. eigenvalues --   -0.55277  -0.54761  -0.54379  -0.54248  -0.54006
 Alpha  occ. eigenvalues --   -0.53827  -0.53731  -0.53338  -0.53072  -0.52952
 Alpha  occ. eigenvalues --   -0.52733  -0.52537  -0.52508  -0.52225  -0.51950
 Alpha  occ. eigenvalues --   -0.51419  -0.51360  -0.51085  -0.50943  -0.50698
 Alpha  occ. eigenvalues --   -0.50604  -0.50508  -0.50392  -0.50028  -0.49895
 Alpha  occ. eigenvalues --   -0.49459  -0.49355  -0.49292  -0.49119  -0.48929
 Alpha  occ. eigenvalues --   -0.48630  -0.48394  -0.48338  -0.48165  -0.47924
 Alpha  occ. eigenvalues --   -0.47551  -0.47127  -0.47091  -0.46908  -0.46747
 Alpha  occ. eigenvalues --   -0.46646  -0.46181  -0.46137  -0.46041  -0.45855
 Alpha  occ. eigenvalues --   -0.45685  -0.45611  -0.45159  -0.45073  -0.44914
 Alpha  occ. eigenvalues --   -0.44720  -0.44622  -0.44442  -0.44324  -0.44153
 Alpha  occ. eigenvalues --   -0.44027  -0.43808  -0.43320  -0.43110  -0.42952
 Alpha  occ. eigenvalues --   -0.42866  -0.42579  -0.42463  -0.42202  -0.41946
 Alpha  occ. eigenvalues --   -0.41869  -0.41649  -0.41468  -0.41367  -0.41298
 Alpha  occ. eigenvalues --   -0.41026  -0.40757  -0.40598  -0.40425  -0.40287
 Alpha  occ. eigenvalues --   -0.40010  -0.39721  -0.39578  -0.39215  -0.38864
 Alpha  occ. eigenvalues --   -0.38330  -0.38005  -0.37377  -0.37358  -0.37232
 Alpha  occ. eigenvalues --   -0.36835  -0.36765  -0.36709  -0.36669  -0.36092
 Alpha  occ. eigenvalues --   -0.36049  -0.35750  -0.35157  -0.34365  -0.34354
 Alpha  occ. eigenvalues --   -0.34172  -0.33686  -0.33292  -0.31595  -0.30996
 Alpha  occ. eigenvalues --   -0.30540  -0.30188  -0.29733  -0.28517  -0.24620
 Alpha  occ. eigenvalues --   -0.21079
 Alpha virt. eigenvalues --   -0.08642  -0.02539   0.00386   0.01334   0.02186
 Alpha virt. eigenvalues --    0.04292   0.04709   0.05203   0.05245   0.06924
 Alpha virt. eigenvalues --    0.07770   0.08558   0.08773   0.08831   0.09109

 Mulliken charges:
               1
     1  Mg   0.825369
     2  C   -0.015082
     3  C   -0.077998
     4  C   -0.063581
     5  C   -0.051740
     6  N   -0.285457
     7  C   -0.043360
     8  C   -0.030449
     9  C   -0.092523
    10  C    0.054223
    11  C    0.080658
    12  C    0.066210
    13  C    0.067275
    14  C    0.175115
    15  O   -0.263767
    16  O   -0.329397
    17  N   -0.390675
    18  C    0.162493
    19  C   -0.123441
    20  C    0.001478
    21  C    0.193197
    22  C    0.130844
    23  C   -0.044999
    24  O   -0.190813
    25  C    0.041983
    26  N   -0.267355
    27  C   -0.033953
    28  C   -0.019819
    29  C   -0.067178
    30  C    0.056173
    31  C    0.068427
    32  C    0.039098
    33  C   -0.000231
    34  N   -0.363854
    35  C    0.059864
    36  C   -0.121877
    37  C    0.015909
    38  C    0.130434
    39  C    0.089871
    40  C    0.046594
    41  O   -0.176531
    42  C    0.034615
    43  C    0.163821
    44  O   -0.215917
    45  O   -0.351318
    46  C    0.179340
    47  C    0.300400
    48  C   -0.118720
    49  C   -0.222600
    50  C    0.064690
    51  C    0.092177
    52  C    0.053365
    53  C    0.056039
    54  C   -0.146688
    55  C    0.033935
    56  C    0.088717
    57  C    0.004178
    58  C    0.079171
    59  C   -0.172567
    60  C    0.048355
    61  C    0.072214
    62  C    0.023959
    63  C    0.068258
    64  C   -0.196962
    65  C    0.024091
    66  C    0.068027
    67  H   -0.022316
    68  H   -0.046331
    69  H   -0.042224
    70  H    0.014454
    71  H    0.003171
    72  H    0.014905
    73  H    0.022258
    74  H    0.019019
    75  H   -0.001606
    76  H    0.047965
    77  H    0.023088
    78  H    0.027146
    79  H    0.043036
    80  H   -0.025164
    81  H    0.029904
    82  H    0.028452
    83  H    0.053241
    84  H    0.019280
    85  H    0.018427
    86  H    0.018163
    87  H    0.026846
    88  H    0.022614
    89  H    0.023821
    90  H    0.016443
    91  H    0.014810
    92  H    0.010515
    93  H    0.015012
    94  H    0.023158
    95  H    0.032882
    96  H    0.016537
    97  H    0.038004
    98  H    0.031952
    99  H    0.042815
   100  H    0.040386
   101  H    0.044941
   102  H    0.033278
   103  H    0.034848
   104  H   -0.003868
   105  H    0.021066
   106  H    0.025605
   107  H   -0.009229
   108  H   -0.007274
   109  H    0.018777
   110  H   -0.002338
   111  H    0.016586
   112  H   -0.011964
   113  H   -0.002496
   114  H   -0.008251
   115  H    0.007735
   116  H    0.007533
   117  H   -0.001127
   118  H   -0.006663
   119  H   -0.010264
   120  H   -0.008566
   121  H   -0.006440
   122  H    0.003192
   123  H   -0.016047
   124  H    0.000571
   125  H   -0.018485
   126  H    0.008698
   127  H    0.007724
   128  H   -0.000792
   129  H   -0.002136
   130  H   -0.011699
   131  H    0.011279
   132  H   -0.007473
   133  H   -0.004068
   134  H   -0.010086
   135  H    0.013092
   136  H   -0.001844
   137  H    0.001764
   138  H    0.005139
   139  H    0.005217
   140  H    0.001690
 Sum of Mulliken charges =  -0.00000

 Dipole moment (field-independent basis, Debye):
    X=              0.3736    Y=              4.2214    Z=              0.6598  Tot=              4.2889
 Quadrupole moment (field-independent basis, Debye-Ang):
   XX=           -390.6231   YY=           -430.7907   ZZ=           -390.5005
   XY=             49.2273   XZ=             -0.8403   YZ=             17.5201

 Normal termination of Gaussian 16 at Wed Apr 27 13:50:33 2022.
