 Gaussian 16, Revision A.03,
 Gaussian 16:  ES64L-G16RevA.03 25-Dec-2016

 ---------------------------------
 #p PBE1PBE/Def2SVP td=(nstates=5)
 ---------------------------------

 ------------------------------------------------------
 step_1201_chromophore_20 TDDFT with PBE1PBE functional
 ------------------------------------------------------
 Symbolic Z-matrix:
 Charge =  0 Multiplicity = 1

                         Standard orientation:
 ---------------------------------------------------------------------
 Center     Atomic      Atomic             Coordinates (Angstroms)
 Number     Number       Type             X           Y           Z
 ---------------------------------------------------------------------
      1         12           0        4.223847    1.459007   -0.681627
      2          6           0        4.096541   -1.976377   -0.840938
      3          6           0        1.950506    1.472960   -3.338668
      4          6           0        3.488490    4.730914   -0.030665
      5          6           0        6.086161    1.248690    2.273311
      6          7           0        3.164584   -0.072755   -1.867047
      7          6           0        3.204316   -1.436327   -1.723796
      8          6           0        2.349771   -2.178917   -2.685427
      9          6           0        2.040559   -1.036623   -3.723511
     10          6           0        2.457859    0.245347   -2.972738
     11          6           0        2.691301   -1.291259   -5.125365
     12          6           0        1.081590   -2.754562   -2.068802
     13          6           0        0.377680   -3.854550   -2.860254
     14          6           0       -0.405714   -4.967896   -2.117404
     15          8           0       -0.388358   -6.198805   -2.343299
     16          8           0       -1.030740   -4.446646   -1.029124
     17          7           0        2.897453    2.915551   -1.474954
     18          6           0        2.031639    2.707177   -2.582572
     19          6           0        1.103157    3.847071   -2.682045
     20          6           0        1.464383    4.826672   -1.705704
     21          6           0        2.663036    4.192638   -0.994152
     22          6           0       -0.008119    3.816677   -3.625901
     23          6           0        0.749056    6.097899   -1.407483
     24          8           0       -0.178654    6.472186   -2.077958
     25          6           0        1.035298    6.942261   -0.204092
     26          7           0        4.657593    2.738341    0.944735
     27          6           0        4.397327    4.057686    0.851051
     28          6           0        5.146860    4.887151    1.922546
     29          6           0        6.027019    3.766351    2.669298
     30          6           0        5.488966    2.505391    1.984118
     31          6           0        6.049599    6.059353    1.341875
     32          6           0        5.856713    3.740870    4.212163
     33          6           0        7.183074    3.367672    4.935498
     34          7           0        5.122043   -0.052756    0.435137
     35          6           0        5.884185    0.027912    1.617616
     36          6           0        6.329918   -1.377094    1.892090
     37          6           0        5.639919   -2.132145    0.960176
     38          6           0        4.924590   -1.302521    0.054856
     39          6           0        7.054601   -1.802922    3.090747
     40          6           0        5.488682   -3.476486    0.565392
     41          8           0        6.070969   -4.444937    1.036144
     42          6           0        4.488400   -3.517177   -0.641814
     43          6           0        3.400649   -4.449685   -0.381402
     44          8           0        2.692907   -4.387886    0.595994
     45          8           0        3.395842   -5.492984   -1.294492
     46          6           0        2.512456   -6.579602   -0.787719
     47          6           0       -1.827017   -5.254110   -0.142848
     48          6           0       -2.890506   -4.440056    0.453129
     49          6           0       -4.153454   -4.761453    0.888000
     50          6           0       -4.414242   -6.205356    1.207265
     51          6           0       -5.206335   -3.705036    1.048454
     52          6           0       -4.889558   -2.825054    2.242635
     53          6           0       -5.998513   -2.918733    3.327818
     54          6           0       -6.543707   -1.579019    3.787339
     55          6           0       -7.173069   -1.829949    5.195469
     56          6           0       -7.579285   -0.960283    2.787266
     57          6           0       -7.369102    0.534258    2.611148
     58          6           0       -6.487328    0.771636    1.379870
     59          6           0       -7.415925    0.953737    0.131155
     60          6           0       -7.214139   -0.136761   -0.970183
     61          6           0       -7.372024    2.339017   -0.571264
     62          6           0       -8.461262    3.270932    0.002449
     63          6           0       -9.428942    3.773547   -1.046693
     64          6           0      -10.905929    3.593321   -0.636943
     65          6           0      -11.542460    2.279100   -1.213246
     66          6           0      -11.865039    4.691265   -0.990210
     67          1           0        1.319073    1.389669   -4.225511
     68          1           0        3.403272    5.776066    0.276462
     69          1           0        6.706575    1.098112    3.158874
     70          1           0        2.913945   -2.997548   -3.133726
     71          1           0        0.977363   -0.920356   -3.935875
     72          1           0        3.177541   -0.345555   -5.368341
     73          1           0        2.002034   -1.508512   -5.941059
     74          1           0        3.361863   -2.132147   -4.948943
     75          1           0        0.359742   -1.938004   -2.085691
     76          1           0        1.175386   -2.986541   -1.007782
     77          1           0        1.073606   -4.271532   -3.589153
     78          1           0       -0.412692   -3.393724   -3.452431
     79          1           0       -0.931531    3.884468   -3.051990
     80          1           0       -0.088423    2.910294   -4.226120
     81          1           0        0.046513    4.457037   -4.505847
     82          1           0        2.096476    7.182901   -0.146750
     83          1           0        0.577622    6.588448    0.719123
     84          1           0        0.558964    7.879285   -0.494069
     85          1           0        4.224763    5.112918    2.460320
     86          1           0        7.089466    3.838401    2.436595
     87          1           0        6.940831    6.095252    1.969117
     88          1           0        5.581800    7.042441    1.292653
     89          1           0        6.294315    5.816976    0.307923
     90          1           0        5.138253    2.939389    4.378722
     91          1           0        5.479831    4.702778    4.560417
     92          1           0        7.115546    2.279804    4.932627
     93          1           0        7.173648    3.654247    5.987368
     94          1           0        8.129262    3.649700    4.473408
     95          1           0        6.293068   -1.889222    3.865897
     96          1           0        7.806368   -1.166165    3.557151
     97          1           0        7.458665   -2.807003    2.964077
     98          1           0        4.925555   -3.842249   -1.585467
     99          1           0        3.021277   -6.981111    0.088113
    100          1           0        2.398405   -7.318096   -1.580588
    101          1           0        1.518953   -6.182783   -0.580733
    102          1           0       -1.180808   -5.715390    0.603042
    103          1           0       -2.299086   -6.055144   -0.712805
    104          1           0       -2.753508   -3.390987    0.187521
    105          1           0       -5.332489   -6.668058    0.844792
    106          1           0       -4.228412   -6.411562    2.260825
    107          1           0       -3.684724   -6.905694    0.799827
    108          1           0       -6.066760   -4.365081    1.159196
    109          1           0       -5.389171   -3.125419    0.143768
    110          1           0       -4.806655   -1.815138    1.838436
    111          1           0       -3.942565   -3.140089    2.679387
    112          1           0       -5.552338   -3.391509    4.202410
    113          1           0       -6.842781   -3.480966    2.927313
    114          1           0       -5.770145   -0.879229    4.100943
    115          1           0       -6.400441   -2.204664    5.866514
    116          1           0       -8.016708   -2.514191    5.106072
    117          1           0       -7.472944   -0.854109    5.575939
    118          1           0       -8.595573   -1.153287    3.133228
    119          1           0       -7.393456   -1.444662    1.828973
    120          1           0       -6.897466    1.023726    3.462962
    121          1           0       -8.312469    1.073307    2.521956
    122          1           0       -5.733410    0.031589    1.111378
    123          1           0       -6.106885    1.771153    1.587405
    124          1           0       -8.416922    0.737211    0.505681
    125          1           0       -6.552176   -0.923531   -0.608409
    126          1           0       -6.795535    0.308459   -1.872901
    127          1           0       -8.132800   -0.679240   -1.192836
    128          1           0       -7.491230    2.186000   -1.643284
    129          1           0       -6.431134    2.861634   -0.394616
    130          1           0       -7.943106    4.180906    0.305489
    131          1           0       -9.022535    2.887496    0.853942
    132          1           0       -9.396876    3.154398   -1.942735
    133          1           0       -9.262390    4.833735   -1.240370
    134          1           0      -10.968434    3.503318    0.447025
    135          1           0      -12.349915    1.867884   -0.607762
    136          1           0      -10.758893    1.544929   -1.400347
    137          1           0      -11.987855    2.466906   -2.189430
    138          1           0      -12.853249    4.302734   -1.237419
    139          1           0      -11.428330    5.243070   -1.822098
    140          1           0      -11.966573    5.322363   -0.106831
 ---------------------------------------------------------------------

 SCF Done:  E(RPBE1PBE) =  -3005.34577164     A.U. after   15 cycles

 Excitation energies and oscillator strengths:

 Excited State   1:      Singlet-A      1.8418 eV  673.16 nm  f=0.3572  <S**2>=0.000
     245 -> 248       -0.17063
     246 -> 247        0.69260
     246 <- 247       -0.10618
 This state for optimization and/or second-order correction.
 Total Energy, E(TD-HF/TD-DFT) =  -3005.27808576
 Copying the excited state density for this state as the 1-particle RhoCI density.

 Excited State   2:      Singlet-A      2.2740 eV  545.23 nm  f=0.0566  <S**2>=0.000
     245 -> 247        0.62351
     246 -> 248        0.31738

 Excited State   3:      Singlet-A      2.9910 eV  414.53 nm  f=0.0051  <S**2>=0.000
     242 -> 247        0.65848
     242 -> 249       -0.16666

 Excited State   4:      Singlet-A      3.0206 eV  410.46 nm  f=0.0004  <S**2>=0.000
     240 -> 247        0.11832
     241 -> 247        0.57140
     241 -> 248        0.10060
     241 -> 249        0.10835
     241 -> 250       -0.11545
     243 -> 247       -0.32243

 Excited State   5:      Singlet-A      3.0791 eV  402.67 nm  f=0.0000  <S**2>=0.000
     244 -> 247        0.70520

 The electronic state is 1-A.
 Alpha  occ. eigenvalues --  -46.92658 -19.25849 -19.25248 -19.19986 -19.19612
 Alpha  occ. eigenvalues --  -19.18683 -19.18529 -14.42141 -14.41774 -14.40162
 Alpha  occ. eigenvalues --  -14.38920 -10.37284 -10.35423 -10.31556 -10.31391
 Alpha  occ. eigenvalues --  -10.29293 -10.29073 -10.29005 -10.28888 -10.28791
 Alpha  occ. eigenvalues --  -10.28646 -10.28534 -10.27901 -10.27575 -10.26700
 Alpha  occ. eigenvalues --  -10.26458 -10.26403 -10.26180 -10.26124 -10.26058
 Alpha  occ. eigenvalues --  -10.26025 -10.25801 -10.25741 -10.25596 -10.25354
 Alpha  occ. eigenvalues --  -10.25106 -10.25085 -10.24905 -10.24843 -10.24619
 Alpha  occ. eigenvalues --  -10.24558 -10.24305 -10.24067 -10.23547 -10.23297
 Alpha  occ. eigenvalues --  -10.23044 -10.22953 -10.22888 -10.22796 -10.22791
 Alpha  occ. eigenvalues --  -10.22773 -10.22440 -10.22419 -10.22347 -10.22319
 Alpha  occ. eigenvalues --  -10.22179 -10.22119 -10.22102 -10.22073 -10.21973
 Alpha  occ. eigenvalues --  -10.21763 -10.21705 -10.21567 -10.21564 -10.21561
 Alpha  occ. eigenvalues --  -10.21087  -3.14749  -1.87572  -1.87127  -1.86967
 Alpha  occ. eigenvalues --   -1.11312  -1.10592  -1.05723  -1.04091  -1.02298
 Alpha  occ. eigenvalues --   -1.01568  -0.99483  -0.99119  -0.97795  -0.95950
 Alpha  occ. eigenvalues --   -0.86656  -0.85108  -0.84619  -0.84081  -0.83530
 Alpha  occ. eigenvalues --   -0.83138  -0.82989  -0.82172  -0.81656  -0.81442
 Alpha  occ. eigenvalues --   -0.80764  -0.80248  -0.78825  -0.78257  -0.78049
 Alpha  occ. eigenvalues --   -0.77208  -0.76279  -0.75598  -0.75229  -0.75106
 Alpha  occ. eigenvalues --   -0.74489  -0.72950  -0.72352  -0.71755  -0.70091
 Alpha  occ. eigenvalues --   -0.69890  -0.69852  -0.68938  -0.68826  -0.68338
 Alpha  occ. eigenvalues --   -0.67785  -0.66906  -0.66571  -0.64862  -0.64180
 Alpha  occ. eigenvalues --   -0.63123  -0.62327  -0.61905  -0.61041  -0.60805
 Alpha  occ. eigenvalues --   -0.60534  -0.59931  -0.59585  -0.58991  -0.58684
 Alpha  occ. eigenvalues --   -0.57883  -0.56827  -0.56161  -0.55920  -0.55132
 Alpha  occ. eigenvalues --   -0.54405  -0.54084  -0.53971  -0.53340  -0.52544
 Alpha  occ. eigenvalues --   -0.51920  -0.51518  -0.51393  -0.50698  -0.50243
 Alpha  occ. eigenvalues --   -0.49840  -0.49287  -0.48876  -0.48605  -0.48563
 Alpha  occ. eigenvalues --   -0.48372  -0.48183  -0.47804  -0.47688  -0.47532
 Alpha  occ. eigenvalues --   -0.47302  -0.47022  -0.46923  -0.46776  -0.46460
 Alpha  occ. eigenvalues --   -0.45980  -0.45890  -0.45651  -0.45516  -0.45308
 Alpha  occ. eigenvalues --   -0.45139  -0.45061  -0.44982  -0.44566  -0.44435
 Alpha  occ. eigenvalues --   -0.44116  -0.43973  -0.43832  -0.43722  -0.43464
 Alpha  occ. eigenvalues --   -0.43291  -0.43078  -0.42942  -0.42824  -0.42568
 Alpha  occ. eigenvalues --   -0.42193  -0.41790  -0.41714  -0.41634  -0.41444
 Alpha  occ. eigenvalues --   -0.41275  -0.40895  -0.40781  -0.40737  -0.40498
 Alpha  occ. eigenvalues --   -0.40441  -0.40355  -0.39866  -0.39686  -0.39658
 Alpha  occ. eigenvalues --   -0.39460  -0.39348  -0.39115  -0.39044  -0.38892
 Alpha  occ. eigenvalues --   -0.38863  -0.38633  -0.38131  -0.37906  -0.37805
 Alpha  occ. eigenvalues --   -0.37598  -0.37293  -0.37207  -0.36955  -0.36706
 Alpha  occ. eigenvalues --   -0.36559  -0.36525  -0.36308  -0.36240  -0.36166
 Alpha  occ. eigenvalues --   -0.35870  -0.35546  -0.35413  -0.35282  -0.35225
 Alpha  occ. eigenvalues --   -0.34773  -0.34542  -0.34438  -0.34038  -0.33836
 Alpha  occ. eigenvalues --   -0.33072  -0.32808  -0.32436  -0.32245  -0.32145
 Alpha  occ. eigenvalues --   -0.31801  -0.31732  -0.31558  -0.31499  -0.31047
 Alpha  occ. eigenvalues --   -0.30958  -0.30595  -0.30023  -0.29563  -0.29286
 Alpha  occ. eigenvalues --   -0.29246  -0.28666  -0.28477  -0.27208  -0.25753
 Alpha  occ. eigenvalues --   -0.25583  -0.25469  -0.25421  -0.23824  -0.21476
 Alpha  occ. eigenvalues --   -0.18783
 Alpha virt. eigenvalues --   -0.11189  -0.05986  -0.03790  -0.02235  -0.01400
 Alpha virt. eigenvalues --   -0.00258   0.00143   0.00645   0.00862   0.03311
 Alpha virt. eigenvalues --    0.03935   0.04586   0.05141   0.05460   0.05841

 Mulliken charges:
               1
     1  Mg   0.967869
     2  C   -0.016930
     3  C   -0.071754
     4  C   -0.060473
     5  C   -0.057292
     6  N   -0.390190
     7  C    0.028145
     8  C   -0.102362
     9  C   -0.166258
    10  C    0.089828
    11  C    0.023484
    12  C    0.017636
    13  C   -0.005262
    14  C    0.240092
    15  O   -0.298272
    16  O   -0.362112
    17  N   -0.495348
    18  C    0.187469
    19  C   -0.156734
    20  C   -0.042527
    21  C    0.217887
    22  C    0.078684
    23  C    0.005592
    24  O   -0.226235
    25  C   -0.031121
    26  N   -0.376914
    27  C    0.006333
    28  C   -0.098874
    29  C   -0.140880
    30  C    0.096757
    31  C    0.007626
    32  C   -0.020732
    33  C   -0.074581
    34  N   -0.493288
    35  C    0.095284
    36  C   -0.141524
    37  C   -0.043862
    38  C    0.189697
    39  C    0.036454
    40  C    0.140992
    41  O   -0.222846
    42  C   -0.072972
    43  C    0.258390
    44  O   -0.250982
    45  O   -0.384026
    46  C    0.118780
    47  C    0.262221
    48  C   -0.122443
    49  C   -0.274363
    50  C    0.005774
    51  C    0.026851
    52  C   -0.015902
    53  C   -0.000426
    54  C   -0.229106
    55  C   -0.028171
    56  C    0.032557
    57  C   -0.064264
    58  C    0.014991
    59  C   -0.247584
    60  C   -0.017380
    61  C    0.015666
    62  C   -0.041255
    63  C    0.011289
    64  C   -0.281475
    65  C   -0.042959
    66  C    0.004817
    67  H    0.008951
    68  H   -0.011874
    69  H   -0.005075
    70  H    0.050613
    71  H    0.039230
    72  H    0.042816
    73  H    0.049011
    74  H    0.046235
    75  H    0.032996
    76  H    0.080587
    77  H    0.053749
    78  H    0.059519
    79  H    0.069451
    80  H    0.001548
    81  H    0.055907
    82  H    0.053767
    83  H    0.079235
    84  H    0.047086
    85  H    0.055818
    86  H    0.055176
    87  H    0.054301
    88  H    0.049650
    89  H    0.051884
    90  H    0.050365
    91  H    0.047755
    92  H    0.038517
    93  H    0.044288
    94  H    0.049776
    95  H    0.062020
    96  H    0.042833
    97  H    0.065780
    98  H    0.068968
    99  H    0.065823
   100  H    0.062050
   101  H    0.072175
   102  H    0.059915
   103  H    0.060318
   104  H    0.027322
   105  H    0.047162
   106  H    0.053826
   107  H    0.017159
   108  H    0.025729
   109  H    0.053672
   110  H    0.034567
   111  H    0.049810
   112  H    0.021025
   113  H    0.029644
   114  H    0.029294
   115  H    0.036007
   116  H    0.035440
   117  H    0.028378
   118  H    0.025272
   119  H    0.027608
   120  H    0.023418
   121  H    0.027394
   122  H    0.038533
   123  H    0.019635
   124  H    0.039471
   125  H    0.012879
   126  H    0.036017
   127  H    0.035265
   128  H    0.030009
   129  H    0.030164
   130  H    0.022858
   131  H    0.042407
   132  H    0.025846
   133  H    0.028456
   134  H    0.027987
   135  H    0.041117
   136  H    0.027755
   137  H    0.030246
   138  H    0.032977
   139  H    0.033038
   140  H    0.029967
 Sum of Mulliken charges =  -0.00000

 Dipole moment (field-independent basis, Debye):
    X=              0.5306    Y=              4.0480    Z=              0.8545  Tot=              4.1711
 Quadrupole moment (field-independent basis, Debye-Ang):
   XX=           -385.8916   YY=           -428.3213   ZZ=           -386.5350
   XY=             49.2931   XZ=              0.6724   YZ=             18.3784

 Normal termination of Gaussian 16 at Wed Apr 27 14:09:15 2022.
