 Gaussian 16, Revision A.03,
 Gaussian 16:  ES64L-G16RevA.03 25-Dec-2016

 --------------------------------
 #p wB97XD/Def2SVP td=(nstates=5)
 --------------------------------

 -----------------------------------------------------
 step_1201_chromophore_20 TDDFT with wB97XD functional
 -----------------------------------------------------
 Symbolic Z-matrix:
 Charge =  0 Multiplicity = 1

                         Standard orientation:
 ---------------------------------------------------------------------
 Center     Atomic      Atomic             Coordinates (Angstroms)
 Number     Number       Type             X           Y           Z
 ---------------------------------------------------------------------
      1         12           0        4.223847    1.459007   -0.681627
      2          6           0        4.096541   -1.976377   -0.840938
      3          6           0        1.950506    1.472960   -3.338668
      4          6           0        3.488490    4.730914   -0.030665
      5          6           0        6.086161    1.248690    2.273311
      6          7           0        3.164584   -0.072755   -1.867047
      7          6           0        3.204316   -1.436327   -1.723796
      8          6           0        2.349771   -2.178917   -2.685427
      9          6           0        2.040559   -1.036623   -3.723511
     10          6           0        2.457859    0.245347   -2.972738
     11          6           0        2.691301   -1.291259   -5.125365
     12          6           0        1.081590   -2.754562   -2.068802
     13          6           0        0.377680   -3.854550   -2.860254
     14          6           0       -0.405714   -4.967896   -2.117404
     15          8           0       -0.388358   -6.198805   -2.343299
     16          8           0       -1.030740   -4.446646   -1.029124
     17          7           0        2.897453    2.915551   -1.474954
     18          6           0        2.031639    2.707177   -2.582572
     19          6           0        1.103157    3.847071   -2.682045
     20          6           0        1.464383    4.826672   -1.705704
     21          6           0        2.663036    4.192638   -0.994152
     22          6           0       -0.008119    3.816677   -3.625901
     23          6           0        0.749056    6.097899   -1.407483
     24          8           0       -0.178654    6.472186   -2.077958
     25          6           0        1.035298    6.942261   -0.204092
     26          7           0        4.657593    2.738341    0.944735
     27          6           0        4.397327    4.057686    0.851051
     28          6           0        5.146860    4.887151    1.922546
     29          6           0        6.027019    3.766351    2.669298
     30          6           0        5.488966    2.505391    1.984118
     31          6           0        6.049599    6.059353    1.341875
     32          6           0        5.856713    3.740870    4.212163
     33          6           0        7.183074    3.367672    4.935498
     34          7           0        5.122043   -0.052756    0.435137
     35          6           0        5.884185    0.027912    1.617616
     36          6           0        6.329918   -1.377094    1.892090
     37          6           0        5.639919   -2.132145    0.960176
     38          6           0        4.924590   -1.302521    0.054856
     39          6           0        7.054601   -1.802922    3.090747
     40          6           0        5.488682   -3.476486    0.565392
     41          8           0        6.070969   -4.444937    1.036144
     42          6           0        4.488400   -3.517177   -0.641814
     43          6           0        3.400649   -4.449685   -0.381402
     44          8           0        2.692907   -4.387886    0.595994
     45          8           0        3.395842   -5.492984   -1.294492
     46          6           0        2.512456   -6.579602   -0.787719
     47          6           0       -1.827017   -5.254110   -0.142848
     48          6           0       -2.890506   -4.440056    0.453129
     49          6           0       -4.153454   -4.761453    0.888000
     50          6           0       -4.414242   -6.205356    1.207265
     51          6           0       -5.206335   -3.705036    1.048454
     52          6           0       -4.889558   -2.825054    2.242635
     53          6           0       -5.998513   -2.918733    3.327818
     54          6           0       -6.543707   -1.579019    3.787339
     55          6           0       -7.173069   -1.829949    5.195469
     56          6           0       -7.579285   -0.960283    2.787266
     57          6           0       -7.369102    0.534258    2.611148
     58          6           0       -6.487328    0.771636    1.379870
     59          6           0       -7.415925    0.953737    0.131155
     60          6           0       -7.214139   -0.136761   -0.970183
     61          6           0       -7.372024    2.339017   -0.571264
     62          6           0       -8.461262    3.270932    0.002449
     63          6           0       -9.428942    3.773547   -1.046693
     64          6           0      -10.905929    3.593321   -0.636943
     65          6           0      -11.542460    2.279100   -1.213246
     66          6           0      -11.865039    4.691265   -0.990210
     67          1           0        1.319073    1.389669   -4.225511
     68          1           0        3.403272    5.776066    0.276462
     69          1           0        6.706575    1.098112    3.158874
     70          1           0        2.913945   -2.997548   -3.133726
     71          1           0        0.977363   -0.920356   -3.935875
     72          1           0        3.177541   -0.345555   -5.368341
     73          1           0        2.002034   -1.508512   -5.941059
     74          1           0        3.361863   -2.132147   -4.948943
     75          1           0        0.359742   -1.938004   -2.085691
     76          1           0        1.175386   -2.986541   -1.007782
     77          1           0        1.073606   -4.271532   -3.589153
     78          1           0       -0.412692   -3.393724   -3.452431
     79          1           0       -0.931531    3.884468   -3.051990
     80          1           0       -0.088423    2.910294   -4.226120
     81          1           0        0.046513    4.457037   -4.505847
     82          1           0        2.096476    7.182901   -0.146750
     83          1           0        0.577622    6.588448    0.719123
     84          1           0        0.558964    7.879285   -0.494069
     85          1           0        4.224763    5.112918    2.460320
     86          1           0        7.089466    3.838401    2.436595
     87          1           0        6.940831    6.095252    1.969117
     88          1           0        5.581800    7.042441    1.292653
     89          1           0        6.294315    5.816976    0.307923
     90          1           0        5.138253    2.939389    4.378722
     91          1           0        5.479831    4.702778    4.560417
     92          1           0        7.115546    2.279804    4.932627
     93          1           0        7.173648    3.654247    5.987368
     94          1           0        8.129262    3.649700    4.473408
     95          1           0        6.293068   -1.889222    3.865897
     96          1           0        7.806368   -1.166165    3.557151
     97          1           0        7.458665   -2.807003    2.964077
     98          1           0        4.925555   -3.842249   -1.585467
     99          1           0        3.021277   -6.981111    0.088113
    100          1           0        2.398405   -7.318096   -1.580588
    101          1           0        1.518953   -6.182783   -0.580733
    102          1           0       -1.180808   -5.715390    0.603042
    103          1           0       -2.299086   -6.055144   -0.712805
    104          1           0       -2.753508   -3.390987    0.187521
    105          1           0       -5.332489   -6.668058    0.844792
    106          1           0       -4.228412   -6.411562    2.260825
    107          1           0       -3.684724   -6.905694    0.799827
    108          1           0       -6.066760   -4.365081    1.159196
    109          1           0       -5.389171   -3.125419    0.143768
    110          1           0       -4.806655   -1.815138    1.838436
    111          1           0       -3.942565   -3.140089    2.679387
    112          1           0       -5.552338   -3.391509    4.202410
    113          1           0       -6.842781   -3.480966    2.927313
    114          1           0       -5.770145   -0.879229    4.100943
    115          1           0       -6.400441   -2.204664    5.866514
    116          1           0       -8.016708   -2.514191    5.106072
    117          1           0       -7.472944   -0.854109    5.575939
    118          1           0       -8.595573   -1.153287    3.133228
    119          1           0       -7.393456   -1.444662    1.828973
    120          1           0       -6.897466    1.023726    3.462962
    121          1           0       -8.312469    1.073307    2.521956
    122          1           0       -5.733410    0.031589    1.111378
    123          1           0       -6.106885    1.771153    1.587405
    124          1           0       -8.416922    0.737211    0.505681
    125          1           0       -6.552176   -0.923531   -0.608409
    126          1           0       -6.795535    0.308459   -1.872901
    127          1           0       -8.132800   -0.679240   -1.192836
    128          1           0       -7.491230    2.186000   -1.643284
    129          1           0       -6.431134    2.861634   -0.394616
    130          1           0       -7.943106    4.180906    0.305489
    131          1           0       -9.022535    2.887496    0.853942
    132          1           0       -9.396876    3.154398   -1.942735
    133          1           0       -9.262390    4.833735   -1.240370
    134          1           0      -10.968434    3.503318    0.447025
    135          1           0      -12.349915    1.867884   -0.607762
    136          1           0      -10.758893    1.544929   -1.400347
    137          1           0      -11.987855    2.466906   -2.189430
    138          1           0      -12.853249    4.302734   -1.237419
    139          1           0      -11.428330    5.243070   -1.822098
    140          1           0      -11.966573    5.322363   -0.106831
 ---------------------------------------------------------------------

 SCF Done:  E(RwB97XD) =  -3007.85682560     A.U. after   20 cycles

 Excitation energies and oscillator strengths:

 Excited State   1:      Singlet-A      1.6384 eV  756.72 nm  f=0.3653  <S**2>=0.000
     245 -> 248       -0.18217
     246 -> 247        0.68343
     245 <- 248       -0.11536
 This state for optimization and/or second-order correction.
 Total Energy, E(TD-HF/TD-DFT) =  -3007.79661425
 Copying the excited state density for this state as the 1-particle RhoCI density.

 Excited State   2:      Singlet-A      2.2151 eV  559.71 nm  f=0.0486  <S**2>=0.000
     245 -> 247        0.60288
     246 -> 248        0.35471

 Excited State   3:      Singlet-A      3.3912 eV  365.61 nm  f=0.5143  <S**2>=0.000
     241 -> 247        0.17506
     242 -> 247        0.29794
     245 -> 247       -0.28411
     246 -> 248        0.54187
     245 <- 247        0.10149

 Excited State   4:      Singlet-A      3.4755 eV  356.74 nm  f=0.0905  <S**2>=0.000
     242 -> 247       -0.41964
     243 -> 247        0.48658
     245 -> 247       -0.12588
     246 -> 248        0.18193

 Excited State   5:      Singlet-A      3.5694 eV  347.35 nm  f=0.0046  <S**2>=0.000
     240 -> 247        0.47753
     240 -> 248       -0.16059
     240 -> 249        0.24713
     240 -> 250       -0.21313
     240 -> 251        0.11293
     241 -> 247       -0.21718
     241 -> 249        0.13780
     243 -> 247        0.15184

 The electronic state is 1-A.
 Alpha  occ. eigenvalues --  -46.95617 -19.30380 -19.29783 -19.24625 -19.24299
 Alpha  occ. eigenvalues --  -19.23500 -19.23360 -14.47265 -14.46789 -14.45217
 Alpha  occ. eigenvalues --  -14.43766 -10.44054 -10.42232 -10.38534 -10.38139
 Alpha  occ. eigenvalues --  -10.35646 -10.35546 -10.35421 -10.35371 -10.35095
 Alpha  occ. eigenvalues --  -10.35048 -10.34741 -10.34079 -10.33937 -10.33168
 Alpha  occ. eigenvalues --  -10.32914 -10.32576 -10.32429 -10.32323 -10.32287
 Alpha  occ. eigenvalues --  -10.32278 -10.32068 -10.32009 -10.31994 -10.31932
 Alpha  occ. eigenvalues --  -10.31498 -10.31486 -10.31426 -10.31254 -10.30873
 Alpha  occ. eigenvalues --  -10.30862 -10.30650 -10.30478 -10.29889 -10.29627
 Alpha  occ. eigenvalues --  -10.29568 -10.29566 -10.29479 -10.29170 -10.29067
 Alpha  occ. eigenvalues --  -10.29040 -10.28781 -10.28714 -10.28714 -10.28698
 Alpha  occ. eigenvalues --  -10.28481 -10.28470 -10.28440 -10.28342 -10.28317
 Alpha  occ. eigenvalues --  -10.28132 -10.28083 -10.27998 -10.27996 -10.27982
 Alpha  occ. eigenvalues --  -10.27522  -3.21573  -1.95143  -1.94699  -1.94538
 Alpha  occ. eigenvalues --   -1.18662  -1.17965  -1.13341  -1.11450  -1.09636
 Alpha  occ. eigenvalues --   -1.08895  -1.06838  -1.06490  -1.05030  -1.03502
 Alpha  occ. eigenvalues --   -0.94185  -0.92759  -0.92234  -0.91740  -0.91127
 Alpha  occ. eigenvalues --   -0.90798  -0.90614  -0.89744  -0.89310  -0.89041
 Alpha  occ. eigenvalues --   -0.88471  -0.87889  -0.86487  -0.85878  -0.85677
 Alpha  occ. eigenvalues --   -0.84858  -0.84017  -0.83289  -0.82855  -0.82706
 Alpha  occ. eigenvalues --   -0.82139  -0.80541  -0.80052  -0.79399  -0.77696
 Alpha  occ. eigenvalues --   -0.77552  -0.77460  -0.76638  -0.76529  -0.76000
 Alpha  occ. eigenvalues --   -0.75298  -0.74468  -0.74120  -0.72474  -0.71693
 Alpha  occ. eigenvalues --   -0.70678  -0.69957  -0.69450  -0.68678  -0.68289
 Alpha  occ. eigenvalues --   -0.68009  -0.67592  -0.67068  -0.66400  -0.66148
 Alpha  occ. eigenvalues --   -0.65594  -0.64497  -0.63804  -0.63320  -0.62603
 Alpha  occ. eigenvalues --   -0.61779  -0.61563  -0.61415  -0.60661  -0.59938
 Alpha  occ. eigenvalues --   -0.59384  -0.59027  -0.58867  -0.58096  -0.57626
 Alpha  occ. eigenvalues --   -0.57224  -0.56675  -0.56277  -0.56093  -0.55920
 Alpha  occ. eigenvalues --   -0.55744  -0.55598  -0.55203  -0.55005  -0.54897
 Alpha  occ. eigenvalues --   -0.54667  -0.54485  -0.54393  -0.54127  -0.53831
 Alpha  occ. eigenvalues --   -0.53351  -0.53276  -0.52997  -0.52860  -0.52627
 Alpha  occ. eigenvalues --   -0.52465  -0.52422  -0.52285  -0.51914  -0.51778
 Alpha  occ. eigenvalues --   -0.51409  -0.51264  -0.51160  -0.51054  -0.50878
 Alpha  occ. eigenvalues --   -0.50537  -0.50282  -0.50233  -0.50066  -0.49812
 Alpha  occ. eigenvalues --   -0.49459  -0.49061  -0.48992  -0.48815  -0.48669
 Alpha  occ. eigenvalues --   -0.48517  -0.48115  -0.48001  -0.47961  -0.47725
 Alpha  occ. eigenvalues --   -0.47616  -0.47497  -0.47115  -0.46920  -0.46848
 Alpha  occ. eigenvalues --   -0.46609  -0.46516  -0.46284  -0.46243  -0.46044
 Alpha  occ. eigenvalues --   -0.45940  -0.45760  -0.45266  -0.45033  -0.44831
 Alpha  occ. eigenvalues --   -0.44774  -0.44596  -0.44412  -0.44086  -0.43849
 Alpha  occ. eigenvalues --   -0.43716  -0.43561  -0.43326  -0.43286  -0.43241
 Alpha  occ. eigenvalues --   -0.42913  -0.42607  -0.42469  -0.42324  -0.42196
 Alpha  occ. eigenvalues --   -0.41857  -0.41571  -0.41469  -0.41056  -0.40777
 Alpha  occ. eigenvalues --   -0.40151  -0.39844  -0.39429  -0.39193  -0.39177
 Alpha  occ. eigenvalues --   -0.38821  -0.38702  -0.38594  -0.38514  -0.38046
 Alpha  occ. eigenvalues --   -0.37925  -0.37586  -0.36983  -0.36326  -0.36197
 Alpha  occ. eigenvalues --   -0.36153  -0.35600  -0.35467  -0.33813  -0.32949
 Alpha  occ. eigenvalues --   -0.32478  -0.32397  -0.31877  -0.30531  -0.26554
 Alpha  occ. eigenvalues --   -0.22882
 Alpha virt. eigenvalues --   -0.06972  -0.00615   0.02472   0.04233   0.04571
 Alpha virt. eigenvalues --    0.06526   0.06906   0.07460   0.07601   0.09847
 Alpha virt. eigenvalues --    0.10403   0.11394   0.11803   0.12048   0.12455

 Mulliken charges:
               1
     1  Mg   0.958978
     2  C   -0.026265
     3  C   -0.090987
     4  C   -0.072701
     5  C   -0.060761
     6  N   -0.355994
     7  C   -0.003854
     8  C   -0.073251
     9  C   -0.141403
    10  C    0.077466
    11  C    0.034864
    12  C    0.028742
    13  C    0.011282
    14  C    0.225205
    15  O   -0.293204
    16  O   -0.358834
    17  N   -0.467433
    18  C    0.181451
    19  C   -0.143763
    20  C   -0.040082
    21  C    0.216578
    22  C    0.085785
    23  C    0.003126
    24  O   -0.220910
    25  C   -0.020776
    26  N   -0.340946
    27  C   -0.007027
    28  C   -0.074236
    29  C   -0.114954
    30  C    0.082246
    31  C    0.020065
    32  C   -0.007444
    33  C   -0.057043
    34  N   -0.452054
    35  C    0.076022
    36  C   -0.134559
    37  C   -0.033336
    38  C    0.168227
    39  C    0.045035
    40  C    0.119416
    41  O   -0.213209
    42  C   -0.030758
    43  C    0.228692
    44  O   -0.243874
    45  O   -0.381993
    46  C    0.139138
    47  C    0.274582
    48  C   -0.135535
    49  C   -0.252873
    50  C    0.016960
    51  C    0.046292
    52  C    0.003927
    53  C    0.018889
    54  C   -0.202820
    55  C   -0.013814
    56  C    0.050012
    57  C   -0.041006
    58  C    0.035720
    59  C   -0.221358
    60  C    0.003823
    61  C    0.032743
    62  C   -0.022653
    63  C    0.027523
    64  C   -0.254289
    65  C   -0.026364
    66  C    0.016689
    67  H    0.002513
    68  H   -0.024625
    69  H   -0.018738
    70  H    0.035939
    71  H    0.028118
    72  H    0.035977
    73  H    0.044694
    74  H    0.040215
    75  H    0.024103
    76  H    0.071375
    77  H    0.048241
    78  H    0.053200
    79  H    0.066537
    80  H   -0.003060
    81  H    0.053727
    82  H    0.050036
    83  H    0.077194
    84  H    0.045304
    85  H    0.044581
    86  H    0.041914
    87  H    0.048686
    88  H    0.044534
    89  H    0.045123
    90  H    0.041353
    91  H    0.039922
    92  H    0.029975
    93  H    0.039633
    94  H    0.044113
    95  H    0.055920
    96  H    0.038388
    97  H    0.062016
    98  H    0.062690
    99  H    0.062348
   100  H    0.060411
   101  H    0.060411
   102  H    0.056199
   103  H    0.053414
   104  H    0.022842
   105  H    0.042960
   106  H    0.047867
   107  H    0.011186
   108  H    0.014596
   109  H    0.045636
   110  H    0.020930
   111  H    0.041132
   112  H    0.012984
   113  H    0.018187
   114  H    0.017075
   115  H    0.029624
   116  H    0.028320
   117  H    0.021613
   118  H    0.018791
   119  H    0.008588
   120  H    0.015024
   121  H    0.017528
   122  H    0.023076
   123  H    0.009889
   124  H    0.021541
   125  H   -0.000701
   126  H    0.029835
   127  H    0.030106
   128  H    0.019047
   129  H    0.022788
   130  H    0.015849
   131  H    0.028290
   132  H    0.013233
   133  H    0.021374
   134  H    0.015843
   135  H    0.035977
   136  H    0.018844
   137  H    0.022567
   138  H    0.027047
   139  H    0.026327
   140  H    0.024695
 Sum of Mulliken charges =  -0.00000

 Dipole moment (field-independent basis, Debye):
    X=              0.3160    Y=              4.3825    Z=              0.6358  Tot=              4.4397
 Quadrupole moment (field-independent basis, Debye-Ang):
   XX=           -386.9327   YY=           -426.3567   ZZ=           -386.2906
   XY=             49.5962   XZ=             -0.3699   YZ=             17.5805

 Normal termination of Gaussian 16 at Wed Apr 27 14:46:06 2022.
