 Gaussian 16, Revision A.03,
 Gaussian 16:  ES64L-G16RevA.03 25-Dec-2016

 --------------------
 #p ZINDO=(nstates=5)
 --------------------

 ------------------------------
 step_1201_chromophore_20 ZINDO
 ------------------------------
 Symbolic Z-matrix:
 Charge =  0 Multiplicity = 1

                         Standard orientation:
 ---------------------------------------------------------------------
 Center     Atomic      Atomic             Coordinates (Angstroms)
 Number     Number       Type             X           Y           Z
 ---------------------------------------------------------------------
      1         12           0        4.223847    1.459007   -0.681627
      2          6           0        4.096541   -1.976377   -0.840938
      3          6           0        1.950506    1.472960   -3.338668
      4          6           0        3.488490    4.730914   -0.030665
      5          6           0        6.086161    1.248690    2.273311
      6          7           0        3.164584   -0.072755   -1.867047
      7          6           0        3.204316   -1.436327   -1.723796
      8          6           0        2.349771   -2.178917   -2.685427
      9          6           0        2.040559   -1.036623   -3.723511
     10          6           0        2.457859    0.245347   -2.972738
     11          6           0        2.691301   -1.291259   -5.125365
     12          6           0        1.081590   -2.754562   -2.068802
     13          6           0        0.377680   -3.854550   -2.860254
     14          6           0       -0.405714   -4.967896   -2.117404
     15          8           0       -0.388358   -6.198805   -2.343299
     16          8           0       -1.030740   -4.446646   -1.029124
     17          7           0        2.897453    2.915551   -1.474954
     18          6           0        2.031639    2.707177   -2.582572
     19          6           0        1.103157    3.847071   -2.682045
     20          6           0        1.464383    4.826672   -1.705704
     21          6           0        2.663036    4.192638   -0.994152
     22          6           0       -0.008119    3.816677   -3.625901
     23          6           0        0.749056    6.097899   -1.407483
     24          8           0       -0.178654    6.472186   -2.077958
     25          6           0        1.035298    6.942261   -0.204092
     26          7           0        4.657593    2.738341    0.944735
     27          6           0        4.397327    4.057686    0.851051
     28          6           0        5.146860    4.887151    1.922546
     29          6           0        6.027019    3.766351    2.669298
     30          6           0        5.488966    2.505391    1.984118
     31          6           0        6.049599    6.059353    1.341875
     32          6           0        5.856713    3.740870    4.212163
     33          6           0        7.183074    3.367672    4.935498
     34          7           0        5.122043   -0.052756    0.435137
     35          6           0        5.884185    0.027912    1.617616
     36          6           0        6.329918   -1.377094    1.892090
     37          6           0        5.639919   -2.132145    0.960176
     38          6           0        4.924590   -1.302521    0.054856
     39          6           0        7.054601   -1.802922    3.090747
     40          6           0        5.488682   -3.476486    0.565392
     41          8           0        6.070969   -4.444937    1.036144
     42          6           0        4.488400   -3.517177   -0.641814
     43          6           0        3.400649   -4.449685   -0.381402
     44          8           0        2.692907   -4.387886    0.595994
     45          8           0        3.395842   -5.492984   -1.294492
     46          6           0        2.512456   -6.579602   -0.787719
     47          6           0       -1.827017   -5.254110   -0.142848
     48          6           0       -2.890506   -4.440056    0.453129
     49          6           0       -4.153454   -4.761453    0.888000
     50          6           0       -4.414242   -6.205356    1.207265
     51          6           0       -5.206335   -3.705036    1.048454
     52          6           0       -4.889558   -2.825054    2.242635
     53          6           0       -5.998513   -2.918733    3.327818
     54          6           0       -6.543707   -1.579019    3.787339
     55          6           0       -7.173069   -1.829949    5.195469
     56          6           0       -7.579285   -0.960283    2.787266
     57          6           0       -7.369102    0.534258    2.611148
     58          6           0       -6.487328    0.771636    1.379870
     59          6           0       -7.415925    0.953737    0.131155
     60          6           0       -7.214139   -0.136761   -0.970183
     61          6           0       -7.372024    2.339017   -0.571264
     62          6           0       -8.461262    3.270932    0.002449
     63          6           0       -9.428942    3.773547   -1.046693
     64          6           0      -10.905929    3.593321   -0.636943
     65          6           0      -11.542460    2.279100   -1.213246
     66          6           0      -11.865039    4.691265   -0.990210
     67          1           0        1.319073    1.389669   -4.225511
     68          1           0        3.403272    5.776066    0.276462
     69          1           0        6.706575    1.098112    3.158874
     70          1           0        2.913945   -2.997548   -3.133726
     71          1           0        0.977363   -0.920356   -3.935875
     72          1           0        3.177541   -0.345555   -5.368341
     73          1           0        2.002034   -1.508512   -5.941059
     74          1           0        3.361863   -2.132147   -4.948943
     75          1           0        0.359742   -1.938004   -2.085691
     76          1           0        1.175386   -2.986541   -1.007782
     77          1           0        1.073606   -4.271532   -3.589153
     78          1           0       -0.412692   -3.393724   -3.452431
     79          1           0       -0.931531    3.884468   -3.051990
     80          1           0       -0.088423    2.910294   -4.226120
     81          1           0        0.046513    4.457037   -4.505847
     82          1           0        2.096476    7.182901   -0.146750
     83          1           0        0.577622    6.588448    0.719123
     84          1           0        0.558964    7.879285   -0.494069
     85          1           0        4.224763    5.112918    2.460320
     86          1           0        7.089466    3.838401    2.436595
     87          1           0        6.940831    6.095252    1.969117
     88          1           0        5.581800    7.042441    1.292653
     89          1           0        6.294315    5.816976    0.307923
     90          1           0        5.138253    2.939389    4.378722
     91          1           0        5.479831    4.702778    4.560417
     92          1           0        7.115546    2.279804    4.932627
     93          1           0        7.173648    3.654247    5.987368
     94          1           0        8.129262    3.649700    4.473408
     95          1           0        6.293068   -1.889222    3.865897
     96          1           0        7.806368   -1.166165    3.557151
     97          1           0        7.458665   -2.807003    2.964077
     98          1           0        4.925555   -3.842249   -1.585467
     99          1           0        3.021277   -6.981111    0.088113
    100          1           0        2.398405   -7.318096   -1.580588
    101          1           0        1.518953   -6.182783   -0.580733
    102          1           0       -1.180808   -5.715390    0.603042
    103          1           0       -2.299086   -6.055144   -0.712805
    104          1           0       -2.753508   -3.390987    0.187521
    105          1           0       -5.332489   -6.668058    0.844792
    106          1           0       -4.228412   -6.411562    2.260825
    107          1           0       -3.684724   -6.905694    0.799827
    108          1           0       -6.066760   -4.365081    1.159196
    109          1           0       -5.389171   -3.125419    0.143768
    110          1           0       -4.806655   -1.815138    1.838436
    111          1           0       -3.942565   -3.140089    2.679387
    112          1           0       -5.552338   -3.391509    4.202410
    113          1           0       -6.842781   -3.480966    2.927313
    114          1           0       -5.770145   -0.879229    4.100943
    115          1           0       -6.400441   -2.204664    5.866514
    116          1           0       -8.016708   -2.514191    5.106072
    117          1           0       -7.472944   -0.854109    5.575939
    118          1           0       -8.595573   -1.153287    3.133228
    119          1           0       -7.393456   -1.444662    1.828973
    120          1           0       -6.897466    1.023726    3.462962
    121          1           0       -8.312469    1.073307    2.521956
    122          1           0       -5.733410    0.031589    1.111378
    123          1           0       -6.106885    1.771153    1.587405
    124          1           0       -8.416922    0.737211    0.505681
    125          1           0       -6.552176   -0.923531   -0.608409
    126          1           0       -6.795535    0.308459   -1.872901
    127          1           0       -8.132800   -0.679240   -1.192836
    128          1           0       -7.491230    2.186000   -1.643284
    129          1           0       -6.431134    2.861634   -0.394616
    130          1           0       -7.943106    4.180906    0.305489
    131          1           0       -9.022535    2.887496    0.853942
    132          1           0       -9.396876    3.154398   -1.942735
    133          1           0       -9.262390    4.833735   -1.240370
    134          1           0      -10.968434    3.503318    0.447025
    135          1           0      -12.349915    1.867884   -0.607762
    136          1           0      -10.758893    1.544929   -1.400347
    137          1           0      -11.987855    2.466906   -2.189430
    138          1           0      -12.853249    4.302734   -1.237419
    139          1           0      -11.428330    5.243070   -1.822098
    140          1           0      -11.966573    5.322363   -0.106831
 ---------------------------------------------------------------------

 SCF Done:  E(RZINDO/S) =  -474.506213094     A.U. after   20 cycles

 Excitation energies and oscillator strengths:

 Excited State   1:      Singlet-A      1.2553 eV  987.65 nm  f=0.5807  <S**2>=0.000
     175 ->178        -0.18995
     176 ->177         0.66276
 This state for optimization and/or second-order correction.
 Total Energy, E(CIS/TDA) =  -474.460079839
 Copying the excited state density for this state as the 1-particle RhoCI density.

 Excited State   2:      Singlet-A      1.9128 eV  648.18 nm  f=0.0020  <S**2>=0.000
     175 ->177         0.47579
     176 ->178         0.50141

 Excited State   3:      Singlet-A      2.8729 eV  431.57 nm  f=0.3324  <S**2>=0.000
     175 ->177        -0.24479
     176 ->178         0.26038
     176 ->179         0.36170
     176 ->180         0.43416

 Excited State   4:      Singlet-A      2.9286 eV  423.36 nm  f=0.0004  <S**2>=0.000
     168 ->177         0.32303
     168 ->178        -0.17023
     168 ->179        -0.32112
     168 ->181        -0.34487
     168 ->186        -0.23833
     168 ->187         0.12448
     168 ->194        -0.12328

 Excited State   5:      Singlet-A      2.9502 eV  420.25 nm  f=0.0210  <S**2>=0.000
     170 ->177        -0.22354
     170 ->179        -0.29175
     170 ->181         0.22819
     170 ->186        -0.13055
     170 ->188         0.10296
     176 ->179        -0.19587
     176 ->180         0.42308

 The electronic state is 1-A.
 Alpha  occ. eigenvalues --   -1.84985  -1.81320  -1.78896  -1.73595  -1.72208
 Alpha  occ. eigenvalues --   -1.69950  -1.67597  -1.62311  -1.61999  -1.58042
 Alpha  occ. eigenvalues --   -1.56333  -1.51804  -1.48894  -1.48002  -1.47226
 Alpha  occ. eigenvalues --   -1.44706  -1.43622  -1.40293  -1.39315  -1.38876
 Alpha  occ. eigenvalues --   -1.36012  -1.34081  -1.33639  -1.31969  -1.29184
 Alpha  occ. eigenvalues --   -1.27537  -1.26421  -1.22932  -1.20714  -1.18419
 Alpha  occ. eigenvalues --   -1.17352  -1.15091  -1.14661  -1.14184  -1.13658
 Alpha  occ. eigenvalues --   -1.12671  -1.11017  -1.10106  -1.05997  -1.02970
 Alpha  occ. eigenvalues --   -1.02181  -1.00348  -0.98239  -0.97445  -0.96637
 Alpha  occ. eigenvalues --   -0.96330  -0.94741  -0.94313  -0.93643  -0.93031
 Alpha  occ. eigenvalues --   -0.92776  -0.90847  -0.89087  -0.88428  -0.86566
 Alpha  occ. eigenvalues --   -0.86056  -0.85142  -0.83278  -0.82872  -0.80311
 Alpha  occ. eigenvalues --   -0.79073  -0.78789  -0.77258  -0.76886  -0.76338
 Alpha  occ. eigenvalues --   -0.75254  -0.74867  -0.74348  -0.73822  -0.72894
 Alpha  occ. eigenvalues --   -0.72706  -0.72286  -0.71894  -0.71472  -0.71022
 Alpha  occ. eigenvalues --   -0.70341  -0.69895  -0.69011  -0.68515  -0.67870
 Alpha  occ. eigenvalues --   -0.67653  -0.67427  -0.66650  -0.66156  -0.65978
 Alpha  occ. eigenvalues --   -0.65044  -0.64954  -0.64533  -0.63997  -0.63777
 Alpha  occ. eigenvalues --   -0.63313  -0.63190  -0.63102  -0.62198  -0.61896
 Alpha  occ. eigenvalues --   -0.61737  -0.61249  -0.60951  -0.60491  -0.60003
 Alpha  occ. eigenvalues --   -0.59876  -0.59304  -0.58852  -0.58637  -0.58302
 Alpha  occ. eigenvalues --   -0.57551  -0.57386  -0.57317  -0.56547  -0.56466
 Alpha  occ. eigenvalues --   -0.56238  -0.55916  -0.55352  -0.55150  -0.54792
 Alpha  occ. eigenvalues --   -0.54532  -0.54047  -0.53216  -0.52927  -0.52776
 Alpha  occ. eigenvalues --   -0.52132  -0.51972  -0.51624  -0.51369  -0.51015
 Alpha  occ. eigenvalues --   -0.50808  -0.50697  -0.50609  -0.50385  -0.50099
 Alpha  occ. eigenvalues --   -0.49667  -0.49495  -0.49315  -0.49141  -0.48728
 Alpha  occ. eigenvalues --   -0.48508  -0.48125  -0.47975  -0.47776  -0.47435
 Alpha  occ. eigenvalues --   -0.47160  -0.46885  -0.46849  -0.46649  -0.46243
 Alpha  occ. eigenvalues --   -0.46015  -0.45706  -0.45565  -0.45517  -0.45201
 Alpha  occ. eigenvalues --   -0.45108  -0.44651  -0.44435  -0.44199  -0.44155
 Alpha  occ. eigenvalues --   -0.43571  -0.43356  -0.42630  -0.42478  -0.42095
 Alpha  occ. eigenvalues --   -0.41703  -0.41689  -0.40662  -0.39191  -0.38455
 Alpha  occ. eigenvalues --   -0.37765  -0.37226  -0.35565  -0.34982  -0.34231
 Alpha  occ. eigenvalues --   -0.33554  -0.33040  -0.32505  -0.30357  -0.27224
 Alpha  occ. eigenvalues --   -0.21625
 Alpha virt. eigenvalues --   -0.08271  -0.02784  -0.00471   0.00785   0.01221
 Alpha virt. eigenvalues --    0.01767   0.02501   0.02865   0.04535   0.04694
 Alpha virt. eigenvalues --    0.06317   0.06564   0.06928   0.07482   0.08214

 Mulliken charges:
               1
     1  Mg   0.430355
     2  C   -0.050634
     3  C   -0.084542
     4  C   -0.083108
     5  C   -0.053345
     6  N   -0.297848
     7  C    0.129551
     8  C    0.013320
     9  C   -0.006704
    10  C    0.147999
    11  C   -0.057280
    12  C   -0.016840
    13  C    0.010860
    14  C    0.469408
    15  O   -0.534284
    16  O   -0.266596
    17  N   -0.336237
    18  C    0.109158
    19  C    0.059040
    20  C   -0.056763
    21  C    0.128191
    22  C   -0.036524
    23  C    0.336289
    24  O   -0.517104
    25  C   -0.035672
    26  N   -0.245630
    27  C    0.136750
    28  C   -0.016354
    29  C   -0.004071
    30  C    0.091806
    31  C   -0.048084
    32  C   -0.028401
    33  C   -0.063367
    34  N   -0.316403
    35  C    0.054198
    36  C    0.049753
    37  C   -0.047181
    38  C    0.123901
    39  C   -0.033949
    40  C    0.337526
    41  O   -0.528637
    42  C    0.044872
    43  C    0.491209
    44  O   -0.519072
    45  O   -0.280171
    46  C    0.072638
    47  C    0.122307
    48  C   -0.103033
    49  C    0.001057
    50  C   -0.046678
    51  C   -0.015247
    52  C   -0.030693
    53  C   -0.033337
    54  C   -0.021593
    55  C   -0.063870
    56  C   -0.028410
    57  C   -0.030032
    58  C   -0.037573
    59  C   -0.023928
    60  C   -0.066601
    61  C   -0.031467
    62  C   -0.038766
    63  C   -0.031866
    64  C   -0.017804
    65  C   -0.060543
    66  C   -0.054104
    67  H    0.031919
    68  H    0.025411
    69  H    0.029553
    70  H    0.032319
    71  H    0.023838
    72  H    0.023738
    73  H    0.026230
    74  H    0.028228
    75  H    0.014987
    76  H    0.044811
    77  H    0.036063
    78  H    0.036832
    79  H    0.042973
    80  H    0.010494
    81  H    0.042610
    82  H    0.030566
    83  H    0.049920
    84  H    0.032419
    85  H    0.047689
    86  H    0.036929
    87  H    0.024667
    88  H    0.023667
    89  H    0.026330
    90  H    0.028299
    91  H    0.021139
    92  H    0.016019
    93  H    0.018492
    94  H    0.029013
    95  H    0.032356
    96  H    0.026755
    97  H    0.034737
    98  H    0.047255
    99  H    0.049758
   100  H    0.032407
   101  H    0.053455
   102  H    0.050721
   103  H    0.048440
   104  H    0.013787
   105  H    0.026721
   106  H    0.030832
   107  H    0.014810
   108  H    0.016895
   109  H    0.028459
   110  H    0.022059
   111  H    0.028190
   112  H    0.018269
   113  H    0.024491
   114  H    0.024090
   115  H    0.017069
   116  H    0.021840
   117  H    0.010942
   118  H    0.019811
   119  H    0.021253
   120  H    0.012231
   121  H    0.017873
   122  H    0.039002
   123  H    0.011940
   124  H    0.019993
   125  H    0.010298
   126  H    0.021955
   127  H    0.016696
   128  H    0.024909
   129  H    0.019875
   130  H    0.009877
   131  H    0.030104
   132  H    0.023775
   133  H    0.021804
   134  H    0.012356
   135  H    0.020017
   136  H    0.011120
   137  H    0.013585
   138  H    0.020348
   139  H    0.020108
   140  H    0.011736
 Sum of Mulliken charges =  -0.00000

 Dipole moment (field-independent basis, Debye):
    X=              0.4447    Y=              5.9741    Z=             -0.9779  Tot=              6.0699
 N-N= 4.510876681271D+03 E-N= 0.000000000000D+00  KE=-9.696365898094D+03
 Leave Link  601 at Wed Apr 27 14:59:09 2022, MaxMem=  6710886400 cpu:               0.8 elap:               0.0
 (Enter /sw/apps/gaussian-16.0/g16/l9999.exe)
 1\1\GINC-BP1-COMPUTE182\SP\RZINDO CIS\STO-3G\C55H74Mg1N4O6\OF15641\27-
 Apr-2022\0\\#p ZINDO=(nstates=5)\\step_1201_chromophore_20 ZINDO\\0,1\
 Mg,0,7.088,56.847,41.817\C,0,5.914,53.635,41.432\C,0,10.185,55.638,40.
 733\C,0,8.119,60.046,41.206\C,0,3.823,57.967,42.391\N,0,7.88,54.899,41
 .145\C,0,7.207,53.713,40.997\C,0,8.045,52.59,40.504\C,0,9.481,53.197,4
 0.722\C,0,9.2,54.698,40.944\C,0,10.3,52.449,41.828\C,0,7.791,52.222,39
 .048\C,0,8.288,50.851,38.595\C,0,7.53,50.076,37.486\O,0,7.226,48.862,3

 Normal termination of Gaussian 16 at Wed Apr 27 14:59:09 2022.
