 Gaussian 16, Revision A.03,
 Gaussian 16:  ES64L-G16RevA.03 25-Dec-2016

 ------------------------------
 #p blyp/Def2SVP td=(nstates=5)
 ------------------------------

 --------------------------------------------------
 step_851_chromophore_16 TDDFT with blyp functional
 --------------------------------------------------
 Symbolic Z-matrix:
 Charge =  0 Multiplicity = 1

                         Standard orientation:
 ---------------------------------------------------------------------
 Center     Atomic      Atomic             Coordinates (Angstroms)
 Number     Number       Type             X           Y           Z
 ---------------------------------------------------------------------
      1         12           0        6.074923    0.688803    0.403652
      2          6           0        3.964270   -2.137505    0.261499
      3          6           0        3.625752    2.506444   -1.219779
      4          6           0        8.311990    3.176606   -0.046310
      5          6           0        8.721876   -1.446979    1.292315
      6          7           0        4.121792    0.152344   -0.583956
      7          6           0        3.371797   -0.978844   -0.315153
      8          6           0        1.955974   -0.856157   -0.995460
      9          6           0        1.864283    0.688679   -1.373753
     10          6           0        3.322935    1.148670   -1.124354
     11          6           0        1.347938    1.007777   -2.728227
     12          6           0        0.864882   -1.396671   -0.007292
     13          6           0       -0.587624   -0.925159   -0.273350
     14          6           0       -1.691963   -1.909358   -0.093452
     15          8           0       -2.161829   -2.285767    0.941326
     16          8           0       -2.085744   -2.351662   -1.312384
     17          7           0        5.935490    2.636759   -0.399841
     18          6           0        4.817339    3.234678   -0.845891
     19          6           0        5.097332    4.648090   -1.044488
     20          6           0        6.485785    4.886960   -0.763776
     21          6           0        7.003203    3.487023   -0.457593
     22          6           0        3.981382    5.633147   -1.390491
     23          6           0        7.268583    6.167207   -0.750589
     24          8           0        8.475777    6.239197   -0.630965
     25          6           0        6.460679    7.479564   -0.825653
     26          7           0        8.194430    0.764779    0.618791
     27          6           0        8.812631    1.932044    0.359296
     28          6           0       10.251459    1.959115    0.867076
     29          6           0       10.440205    0.439740    1.273376
     30          6           0        9.042539   -0.133760    1.111419
     31          6           0       11.276233    2.593560   -0.237676
     32          6           0       10.905136    0.267102    2.770001
     33          6           0        9.786378    0.174024    3.861052
     34          7           0        6.312800   -1.376527    0.814866
     35          6           0        7.461308   -2.106704    1.109129
     36          6           0        7.075681   -3.464958    1.337072
     37          6           0        5.693369   -3.497404    1.130505
     38          6           0        5.308076   -2.211715    0.726679
     39          6           0        7.897301   -4.680242    1.838954
     40          6           0        4.567496   -4.386193    1.075407
     41          8           0        4.448456   -5.548105    1.436173
     42          6           0        3.298353   -3.561845    0.459729
     43          6           0        2.946128   -4.222053   -0.808383
     44          8           0        3.600637   -4.289746   -1.802442
     45          8           0        1.690001   -4.754827   -0.643968
     46          6           0        1.353937   -5.787938   -1.571237
     47          6           0       -3.238593   -3.300912   -1.339221
     48          6           0       -4.481677   -2.488098   -1.143117
     49          6           0       -5.669924   -3.029047   -0.889717
     50          6           0       -6.018286   -4.484576   -0.877447
     51          6           0       -6.851333   -2.099688   -0.673010
     52          6           0       -7.714591   -1.861753   -1.907161
     53          6           0       -8.003165   -0.265329   -2.072753
     54          6           0       -9.429563   -0.010094   -2.549324
     55          6           0       -9.456495    0.572595   -3.990367
     56          6           0      -10.225508    0.859500   -1.627234
     57          6           0      -11.726409    0.484710   -1.384761
     58          6           0      -12.576901    1.746149   -1.005430
     59          6           0      -13.689171    1.492386    0.016114
     60          6           0      -14.613531    0.352305   -0.497095
     61          6           0      -14.442195    2.760664    0.303259
     62          6           0      -14.180571    3.234673    1.792034
     63          6           0      -15.197040    2.841002    2.868431
     64          6           0      -14.796119    1.617110    3.735157
     65          6           0      -14.127806    2.107749    5.025537
     66          6           0      -16.026795    0.770628    4.253815
     67          1           0        2.776044    3.107907   -1.550272
     68          1           0        9.021008    4.006965   -0.060521
     69          1           0        9.461353   -2.160300    1.661882
     70          1           0        1.888236   -1.513217   -1.862679
     71          1           0        1.208409    1.154665   -0.639074
     72          1           0        1.970207    1.765594   -3.203260
     73          1           0        0.331249    1.399145   -2.687894
     74          1           0        1.285825    0.204086   -3.462926
     75          1           0        1.178239   -0.942288    0.932909
     76          1           0        0.861455   -2.485357    0.043647
     77          1           0       -0.602560   -0.542835   -1.294655
     78          1           0       -0.963040   -0.058177    0.271049
     79          1           0        2.967969    5.302028   -1.616374
     80          1           0        4.332719    6.307056   -2.170991
     81          1           0        3.841593    6.241595   -0.496744
     82          1           0        6.050000    7.449593   -1.835054
     83          1           0        7.105223    8.357306   -0.865532
     84          1           0        5.707216    7.567768   -0.042564
     85          1           0       10.334001    2.572004    1.765210
     86          1           0       11.176850   -0.004699    0.603262
     87          1           0       12.077103    1.859683   -0.329055
     88          1           0       11.656847    3.541973    0.141440
     89          1           0       10.894750    2.754581   -1.245226
     90          1           0       11.530325    1.149124    2.911352
     91          1           0       11.489364   -0.653168    2.752373
     92          1           0        8.898659    0.593795    3.386195
     93          1           0        9.999047    0.837126    4.700137
     94          1           0        9.713570   -0.854310    4.214826
     95          1           0        7.978141   -5.523146    1.152180
     96          1           0        7.330413   -4.976544    2.721369
     97          1           0        8.859078   -4.389965    2.262556
     98          1           0        2.570008   -3.710435    1.257135
     99          1           0        0.504222   -5.456421   -2.168622
    100          1           0        1.075522   -6.619275   -0.923827
    101          1           0        2.097960   -6.081216   -2.312069
    102          1           0       -3.196243   -3.960132   -0.471915
    103          1           0       -3.174713   -3.842882   -2.283648
    104          1           0       -4.194310   -1.443322   -1.025499
    105          1           0       -6.573104   -4.638611    0.047972
    106          1           0       -5.124612   -5.105204   -0.808369
    107          1           0       -6.677939   -4.858025   -1.661292
    108          1           0       -6.389093   -1.205666   -0.255949
    109          1           0       -7.451957   -2.643669    0.055369
    110          1           0       -8.701962   -2.283796   -1.719573
    111          1           0       -7.243090   -2.277122   -2.797256
    112          1           0       -7.285264    0.054730   -2.828312
    113          1           0       -7.803493    0.372208   -1.212023
    114          1           0       -9.952673   -0.964661   -2.601417
    115          1           0      -10.437654    0.999241   -4.196933
    116          1           0       -9.132677   -0.337841   -4.492702
    117          1           0       -8.660739    1.316938   -4.038011
    118          1           0      -10.154853    1.870465   -2.030025
    119          1           0       -9.791638    0.680770   -0.643517
    120          1           0      -11.764179   -0.333240   -0.664740
    121          1           0      -12.110455    0.030680   -2.298336
    122          1           0      -13.126337    2.153683   -1.853076
    123          1           0      -11.942585    2.486191   -0.516397
    124          1           0      -13.185388    1.112362    0.904552
    125          1           0      -14.280560   -0.627496   -0.155825
    126          1           0      -14.482316    0.175051   -1.564597
    127          1           0      -15.677989    0.505049   -0.318453
    128          1           0      -15.519841    2.612907    0.222335
    129          1           0      -14.170305    3.587300   -0.353113
    130          1           0      -14.241277    4.323082    1.786711
    131          1           0      -13.158315    3.007927    2.093004
    132          1           0      -16.107912    2.574440    2.332837
    133          1           0      -15.589414    3.651566    3.483897
    134          1           0      -14.220064    0.960762    3.082578
    135          1           0      -14.072577    3.191080    5.134736
    136          1           0      -13.137287    1.652342    4.992216
    137          1           0      -14.567362    1.706252    5.937592
    138          1           0      -16.065459    0.526537    5.315279
    139          1           0      -15.919208   -0.212777    3.795896
    140          1           0      -16.933017    1.240879    3.871172
 ---------------------------------------------------------------------

 SCF Done:  E(RB-LYP) =  -3007.37681585     A.U. after   21 cycles

 Excitation energies and oscillator strengths:

 Excited State   1:      Singlet-A      1.8228 eV  680.19 nm  f=0.2596  <S**2>=0.000
     244 -> 247       -0.26188
     245 -> 247       -0.11811
     245 -> 248        0.17455
     246 -> 247        0.63085
     246 <- 247       -0.13411
 This state for optimization and/or second-order correction.
 Total Energy, E(TD-HF/TD-DFT) =  -3007.30982932
 Copying the excited state density for this state as the 1-particle RhoCI density.

 Excited State   2:      Singlet-A      1.8753 eV  661.13 nm  f=0.0724  <S**2>=0.000
     244 -> 247        0.60076
     245 -> 247        0.22889
     246 -> 247        0.27859

 Excited State   3:      Singlet-A      1.9808 eV  625.92 nm  f=0.0043  <S**2>=0.000
     243 -> 247        0.67815
     245 -> 247       -0.16385

 Excited State   4:      Singlet-A      2.0404 eV  607.66 nm  f=0.0745  <S**2>=0.000
     243 -> 247        0.19616
     244 -> 247       -0.24141
     245 -> 247        0.58187
     246 -> 248       -0.22182

 Excited State   5:      Singlet-A      2.2647 eV  547.46 nm  f=0.0001  <S**2>=0.000
     242 -> 247        0.70710

 The electronic state is 1-A.
 Alpha  occ. eigenvalues --  -46.28234 -18.81630 -18.81393 -18.76620 -18.76178
 Alpha  occ. eigenvalues --  -18.75974 -18.75808 -14.03670 -14.03338 -14.01690
 Alpha  occ. eigenvalues --  -14.00680 -10.03347 -10.03176 -10.00276  -9.99575
 Alpha  occ. eigenvalues --   -9.97494  -9.97106  -9.96861  -9.96836  -9.96360
 Alpha  occ. eigenvalues --   -9.96250  -9.96207  -9.96031  -9.95605  -9.94786
 Alpha  occ. eigenvalues --   -9.94406  -9.94390  -9.94366  -9.94345  -9.93852
 Alpha  occ. eigenvalues --   -9.93763  -9.93670  -9.93620  -9.93460  -9.93453
 Alpha  occ. eigenvalues --   -9.93383  -9.93138  -9.92884  -9.92829  -9.92684
 Alpha  occ. eigenvalues --   -9.92475  -9.92453  -9.92415  -9.92258  -9.92214
 Alpha  occ. eigenvalues --   -9.92184  -9.92162  -9.92148  -9.92050  -9.91809
 Alpha  occ. eigenvalues --   -9.91490  -9.91364  -9.91328  -9.91325  -9.91245
 Alpha  occ. eigenvalues --   -9.91230  -9.91095  -9.91014  -9.90939  -9.90890
 Alpha  occ. eigenvalues --   -9.90765  -9.90602  -9.90602  -9.90475  -9.90386
 Alpha  occ. eigenvalues --   -9.90230  -2.92733  -1.73141  -1.72624  -1.72442
 Alpha  occ. eigenvalues --   -0.98510  -0.98051  -0.92206  -0.91320  -0.90957
 Alpha  occ. eigenvalues --   -0.90033  -0.87503  -0.86563  -0.86033  -0.84574
 Alpha  occ. eigenvalues --   -0.74420  -0.73978  -0.73332  -0.72739  -0.72370
 Alpha  occ. eigenvalues --   -0.72155  -0.71563  -0.71096  -0.70895  -0.70463
 Alpha  occ. eigenvalues --   -0.69718  -0.69272  -0.67951  -0.67454  -0.66824
 Alpha  occ. eigenvalues --   -0.66203  -0.65601  -0.65216  -0.64943  -0.64154
 Alpha  occ. eigenvalues --   -0.63812  -0.62627  -0.62448  -0.61567  -0.60494
 Alpha  occ. eigenvalues --   -0.60313  -0.60144  -0.59773  -0.59227  -0.59105
 Alpha  occ. eigenvalues --   -0.58269  -0.57884  -0.56927  -0.55824  -0.55188
 Alpha  occ. eigenvalues --   -0.54345  -0.53705  -0.53085  -0.52527  -0.51462
 Alpha  occ. eigenvalues --   -0.51341  -0.50949  -0.50691  -0.50233  -0.49420
 Alpha  occ. eigenvalues --   -0.49039  -0.48559  -0.48471  -0.48411  -0.46994
 Alpha  occ. eigenvalues --   -0.46624  -0.46099  -0.45671  -0.45144  -0.44681
 Alpha  occ. eigenvalues --   -0.44113  -0.43797  -0.43230  -0.42794  -0.42482
 Alpha  occ. eigenvalues --   -0.41992  -0.41777  -0.41555  -0.41481  -0.41061
 Alpha  occ. eigenvalues --   -0.41022  -0.40757  -0.40390  -0.40211  -0.40128
 Alpha  occ. eigenvalues --   -0.39828  -0.39753  -0.39584  -0.39314  -0.39234
 Alpha  occ. eigenvalues --   -0.38791  -0.38410  -0.38312  -0.38211  -0.38052
 Alpha  occ. eigenvalues --   -0.37855  -0.37569  -0.37433  -0.37080  -0.37044
 Alpha  occ. eigenvalues --   -0.36931  -0.36833  -0.36633  -0.36544  -0.36443
 Alpha  occ. eigenvalues --   -0.36402  -0.36207  -0.36062  -0.35933  -0.35581
 Alpha  occ. eigenvalues --   -0.35512  -0.35401  -0.35364  -0.35051  -0.34936
 Alpha  occ. eigenvalues --   -0.34712  -0.34391  -0.34285  -0.34042  -0.33783
 Alpha  occ. eigenvalues --   -0.33751  -0.33658  -0.33404  -0.33233  -0.33207
 Alpha  occ. eigenvalues --   -0.33000  -0.32950  -0.32716  -0.32619  -0.32329
 Alpha  occ. eigenvalues --   -0.32103  -0.32031  -0.31887  -0.31680  -0.31525
 Alpha  occ. eigenvalues --   -0.31353  -0.31311  -0.31046  -0.30962  -0.30879
 Alpha  occ. eigenvalues --   -0.30761  -0.30709  -0.30473  -0.30365  -0.30012
 Alpha  occ. eigenvalues --   -0.29857  -0.29435  -0.29353  -0.29207  -0.28730
 Alpha  occ. eigenvalues --   -0.28571  -0.28416  -0.28258  -0.27954  -0.27594
 Alpha  occ. eigenvalues --   -0.27404  -0.27349  -0.26660  -0.26574  -0.26222
 Alpha  occ. eigenvalues --   -0.26095  -0.25793  -0.25492  -0.25190  -0.24950
 Alpha  occ. eigenvalues --   -0.24549  -0.24461  -0.24276  -0.23880  -0.23862
 Alpha  occ. eigenvalues --   -0.23479  -0.22561  -0.22136  -0.21667  -0.20996
 Alpha  occ. eigenvalues --   -0.20679  -0.20158  -0.19047  -0.18664  -0.17437
 Alpha  occ. eigenvalues --   -0.16186
 Alpha virt. eigenvalues --   -0.11836  -0.07014  -0.06142  -0.04606  -0.03839
 Alpha virt. eigenvalues --   -0.02210  -0.01717  -0.01480  -0.01286   0.00123
 Alpha virt. eigenvalues --    0.01350   0.01930   0.02545   0.02656   0.03137

 Mulliken charges:
               1
     1  Mg   0.693728
     2  C    0.002233
     3  C   -0.033218
     4  C   -0.066907
     5  C   -0.049238
     6  N   -0.221061
     7  C   -0.071734
     8  C   -0.007156
     9  C    0.013285
    10  C    0.027828
    11  C    0.138007
    12  C    0.096419
    13  C    0.154725
    14  C    0.023501
    15  O   -0.166365
    16  O   -0.279576
    17  N   -0.266104
    18  C    0.105854
    19  C   -0.132053
    20  C    0.020226
    21  C    0.097445
    22  C    0.169704
    23  C   -0.079867
    24  O   -0.148452
    25  C    0.123598
    26  N   -0.189440
    27  C    0.062149
    28  C   -0.037438
    29  C    0.061400
    30  C    0.005766
    31  C    0.101179
    32  C    0.045898
    33  C    0.091825
    34  N   -0.226078
    35  C    0.067398
    36  C   -0.162419
    37  C    0.108123
    38  C    0.086231
    39  C    0.165877
    40  C   -0.089820
    41  O   -0.134965
    42  C    0.041204
    43  C    0.109280
    44  O   -0.141375
    45  O   -0.266189
    46  C    0.203118
    47  C    0.303537
    48  C   -0.131958
    49  C   -0.151911
    50  C    0.149017
    51  C    0.148873
    52  C    0.081710
    53  C    0.090381
    54  C   -0.106989
    55  C    0.111830
    56  C    0.116654
    57  C    0.068483
    58  C    0.090060
    59  C   -0.094509
    60  C    0.115157
    61  C    0.155126
    62  C    0.057013
    63  C    0.106968
    64  C   -0.114631
    65  C    0.121114
    66  C    0.093832
    67  H   -0.062878
    68  H   -0.035515
    69  H   -0.072731
    70  H   -0.001321
    71  H   -0.015169
    72  H   -0.013179
    73  H   -0.014271
    74  H   -0.010520
    75  H   -0.027912
    76  H    0.024942
    77  H   -0.037960
    78  H   -0.011620
    79  H   -0.007140
    80  H   -0.004116
    81  H   -0.001746
    82  H   -0.003664
    83  H   -0.016835
    84  H    0.018929
    85  H   -0.011962
    86  H   -0.022696
    87  H   -0.016317
    88  H    0.006633
    89  H    0.010878
    90  H   -0.019939
    91  H   -0.016204
    92  H    0.003669
    93  H   -0.012549
    94  H    0.006997
    95  H    0.022669
    96  H    0.006552
    97  H   -0.024636
    98  H    0.005473
    99  H    0.001669
   100  H    0.018639
   101  H    0.022259
   102  H    0.016629
   103  H    0.008977
   104  H   -0.025738
   105  H   -0.010757
   106  H   -0.020919
   107  H    0.006603
   108  H   -0.018194
   109  H   -0.043493
   110  H   -0.023415
   111  H   -0.011511
   112  H   -0.039445
   113  H   -0.028896
   114  H   -0.043930
   115  H   -0.004989
   116  H   -0.013549
   117  H   -0.014403
   118  H   -0.031845
   119  H   -0.038984
   120  H   -0.034967
   121  H   -0.036941
   122  H   -0.027130
   123  H   -0.026833
   124  H   -0.028852
   125  H   -0.028242
   126  H   -0.034681
   127  H   -0.011735
   128  H   -0.043008
   129  H   -0.034800
   130  H   -0.047575
   131  H   -0.028981
   132  H   -0.056718
   133  H   -0.038264
   134  H   -0.021693
   135  H   -0.009655
   136  H   -0.021711
   137  H   -0.021574
   138  H   -0.011098
   139  H   -0.027273
   140  H   -0.015144
 Sum of Mulliken charges =  -0.00000

 Dipole moment (field-independent basis, Debye):
    X=             -1.9513    Y=              2.6893    Z=             -0.3041  Tot=              3.3365
 Quadrupole moment (field-independent basis, Debye-Ang):
   XX=           -395.7017   YY=           -416.8073   ZZ=           -408.7129
   XY=              6.1525   XZ=             26.1103   YZ=              8.7301

 Normal termination of Gaussian 16 at Thu May  5 13:40:50 2022.
