 Gaussian 16, Revision A.03,
 Gaussian 16:  ES64L-G16RevA.03 25-Dec-2016

 -----------------------------------
 #p cam-b3lyp/Def2SVP td=(nstates=5)
 -----------------------------------

 -------------------------------------------------------
 step_851_chromophore_16 TDDFT with cam-b3lyp functional
 -------------------------------------------------------
 Symbolic Z-matrix:
 Charge =  0 Multiplicity = 1

                         Standard orientation:
 ---------------------------------------------------------------------
 Center     Atomic      Atomic             Coordinates (Angstroms)
 Number     Number       Type             X           Y           Z
 ---------------------------------------------------------------------
      1         12           0        6.074923    0.688803    0.403652
      2          6           0        3.964270   -2.137505    0.261499
      3          6           0        3.625752    2.506444   -1.219779
      4          6           0        8.311990    3.176606   -0.046310
      5          6           0        8.721876   -1.446979    1.292315
      6          7           0        4.121792    0.152344   -0.583956
      7          6           0        3.371797   -0.978844   -0.315153
      8          6           0        1.955974   -0.856157   -0.995460
      9          6           0        1.864283    0.688679   -1.373753
     10          6           0        3.322935    1.148670   -1.124354
     11          6           0        1.347938    1.007777   -2.728227
     12          6           0        0.864882   -1.396671   -0.007292
     13          6           0       -0.587624   -0.925159   -0.273350
     14          6           0       -1.691963   -1.909358   -0.093452
     15          8           0       -2.161829   -2.285767    0.941326
     16          8           0       -2.085744   -2.351662   -1.312384
     17          7           0        5.935490    2.636759   -0.399841
     18          6           0        4.817339    3.234678   -0.845891
     19          6           0        5.097332    4.648090   -1.044488
     20          6           0        6.485785    4.886960   -0.763776
     21          6           0        7.003203    3.487023   -0.457593
     22          6           0        3.981382    5.633147   -1.390491
     23          6           0        7.268583    6.167207   -0.750589
     24          8           0        8.475777    6.239197   -0.630965
     25          6           0        6.460679    7.479564   -0.825653
     26          7           0        8.194430    0.764779    0.618791
     27          6           0        8.812631    1.932044    0.359296
     28          6           0       10.251459    1.959115    0.867076
     29          6           0       10.440205    0.439740    1.273376
     30          6           0        9.042539   -0.133760    1.111419
     31          6           0       11.276233    2.593560   -0.237676
     32          6           0       10.905136    0.267102    2.770001
     33          6           0        9.786378    0.174024    3.861052
     34          7           0        6.312800   -1.376527    0.814866
     35          6           0        7.461308   -2.106704    1.109129
     36          6           0        7.075681   -3.464958    1.337072
     37          6           0        5.693369   -3.497404    1.130505
     38          6           0        5.308076   -2.211715    0.726679
     39          6           0        7.897301   -4.680242    1.838954
     40          6           0        4.567496   -4.386193    1.075407
     41          8           0        4.448456   -5.548105    1.436173
     42          6           0        3.298353   -3.561845    0.459729
     43          6           0        2.946128   -4.222053   -0.808383
     44          8           0        3.600637   -4.289746   -1.802442
     45          8           0        1.690001   -4.754827   -0.643968
     46          6           0        1.353937   -5.787938   -1.571237
     47          6           0       -3.238593   -3.300912   -1.339221
     48          6           0       -4.481677   -2.488098   -1.143117
     49          6           0       -5.669924   -3.029047   -0.889717
     50          6           0       -6.018286   -4.484576   -0.877447
     51          6           0       -6.851333   -2.099688   -0.673010
     52          6           0       -7.714591   -1.861753   -1.907161
     53          6           0       -8.003165   -0.265329   -2.072753
     54          6           0       -9.429563   -0.010094   -2.549324
     55          6           0       -9.456495    0.572595   -3.990367
     56          6           0      -10.225508    0.859500   -1.627234
     57          6           0      -11.726409    0.484710   -1.384761
     58          6           0      -12.576901    1.746149   -1.005430
     59          6           0      -13.689171    1.492386    0.016114
     60          6           0      -14.613531    0.352305   -0.497095
     61          6           0      -14.442195    2.760664    0.303259
     62          6           0      -14.180571    3.234673    1.792034
     63          6           0      -15.197040    2.841002    2.868431
     64          6           0      -14.796119    1.617110    3.735157
     65          6           0      -14.127806    2.107749    5.025537
     66          6           0      -16.026795    0.770628    4.253815
     67          1           0        2.776044    3.107907   -1.550272
     68          1           0        9.021008    4.006965   -0.060521
     69          1           0        9.461353   -2.160300    1.661882
     70          1           0        1.888236   -1.513217   -1.862679
     71          1           0        1.208409    1.154665   -0.639074
     72          1           0        1.970207    1.765594   -3.203260
     73          1           0        0.331249    1.399145   -2.687894
     74          1           0        1.285825    0.204086   -3.462926
     75          1           0        1.178239   -0.942288    0.932909
     76          1           0        0.861455   -2.485357    0.043647
     77          1           0       -0.602560   -0.542835   -1.294655
     78          1           0       -0.963040   -0.058177    0.271049
     79          1           0        2.967969    5.302028   -1.616374
     80          1           0        4.332719    6.307056   -2.170991
     81          1           0        3.841593    6.241595   -0.496744
     82          1           0        6.050000    7.449593   -1.835054
     83          1           0        7.105223    8.357306   -0.865532
     84          1           0        5.707216    7.567768   -0.042564
     85          1           0       10.334001    2.572004    1.765210
     86          1           0       11.176850   -0.004699    0.603262
     87          1           0       12.077103    1.859683   -0.329055
     88          1           0       11.656847    3.541973    0.141440
     89          1           0       10.894750    2.754581   -1.245226
     90          1           0       11.530325    1.149124    2.911352
     91          1           0       11.489364   -0.653168    2.752373
     92          1           0        8.898659    0.593795    3.386195
     93          1           0        9.999047    0.837126    4.700137
     94          1           0        9.713570   -0.854310    4.214826
     95          1           0        7.978141   -5.523146    1.152180
     96          1           0        7.330413   -4.976544    2.721369
     97          1           0        8.859078   -4.389965    2.262556
     98          1           0        2.570008   -3.710435    1.257135
     99          1           0        0.504222   -5.456421   -2.168622
    100          1           0        1.075522   -6.619275   -0.923827
    101          1           0        2.097960   -6.081216   -2.312069
    102          1           0       -3.196243   -3.960132   -0.471915
    103          1           0       -3.174713   -3.842882   -2.283648
    104          1           0       -4.194310   -1.443322   -1.025499
    105          1           0       -6.573104   -4.638611    0.047972
    106          1           0       -5.124612   -5.105204   -0.808369
    107          1           0       -6.677939   -4.858025   -1.661292
    108          1           0       -6.389093   -1.205666   -0.255949
    109          1           0       -7.451957   -2.643669    0.055369
    110          1           0       -8.701962   -2.283796   -1.719573
    111          1           0       -7.243090   -2.277122   -2.797256
    112          1           0       -7.285264    0.054730   -2.828312
    113          1           0       -7.803493    0.372208   -1.212023
    114          1           0       -9.952673   -0.964661   -2.601417
    115          1           0      -10.437654    0.999241   -4.196933
    116          1           0       -9.132677   -0.337841   -4.492702
    117          1           0       -8.660739    1.316938   -4.038011
    118          1           0      -10.154853    1.870465   -2.030025
    119          1           0       -9.791638    0.680770   -0.643517
    120          1           0      -11.764179   -0.333240   -0.664740
    121          1           0      -12.110455    0.030680   -2.298336
    122          1           0      -13.126337    2.153683   -1.853076
    123          1           0      -11.942585    2.486191   -0.516397
    124          1           0      -13.185388    1.112362    0.904552
    125          1           0      -14.280560   -0.627496   -0.155825
    126          1           0      -14.482316    0.175051   -1.564597
    127          1           0      -15.677989    0.505049   -0.318453
    128          1           0      -15.519841    2.612907    0.222335
    129          1           0      -14.170305    3.587300   -0.353113
    130          1           0      -14.241277    4.323082    1.786711
    131          1           0      -13.158315    3.007927    2.093004
    132          1           0      -16.107912    2.574440    2.332837
    133          1           0      -15.589414    3.651566    3.483897
    134          1           0      -14.220064    0.960762    3.082578
    135          1           0      -14.072577    3.191080    5.134736
    136          1           0      -13.137287    1.652342    4.992216
    137          1           0      -14.567362    1.706252    5.937592
    138          1           0      -16.065459    0.526537    5.315279
    139          1           0      -15.919208   -0.212777    3.795896
    140          1           0      -16.933017    1.240879    3.871172
 ---------------------------------------------------------------------

 SCF Done:  E(RCAM-B3LYP) =  -3007.17554505     A.U. after   19 cycles

 Excitation energies and oscillator strengths:

 Excited State   1:      Singlet-A      1.7185 eV  721.47 nm  f=0.3994  <S**2>=0.000
     245 -> 248       -0.17913
     246 -> 247        0.68570
     245 <- 248       -0.10740
 This state for optimization and/or second-order correction.
 Total Energy, E(TD-HF/TD-DFT) =  -3007.11239191
 Copying the excited state density for this state as the 1-particle RhoCI density.

 Excited State   2:      Singlet-A      2.2056 eV  562.14 nm  f=0.1349  <S**2>=0.000
     245 -> 247        0.64812
     246 -> 248        0.26944

 Excited State   3:      Singlet-A      3.3722 eV  367.66 nm  f=0.0007  <S**2>=0.000
     241 -> 247       -0.12387
     242 -> 251       -0.11662
     244 -> 247        0.64899

 Excited State   4:      Singlet-A      3.4837 eV  355.89 nm  f=0.0532  <S**2>=0.000
     241 -> 247        0.46650
     242 -> 247        0.39722
     246 -> 248       -0.26202

 Excited State   5:      Singlet-A      3.5480 eV  349.45 nm  f=0.0428  <S**2>=0.000
     241 -> 247       -0.33542
     242 -> 247        0.46333
     242 -> 249       -0.16589
     242 -> 251       -0.15799
     244 -> 247       -0.13930
     246 -> 248        0.24696

 The electronic state is 1-A.
 Alpha  occ. eigenvalues --  -46.89832 -19.24527 -19.24252 -19.19766 -19.19433
 Alpha  occ. eigenvalues --  -19.19177 -19.18697 -14.42485 -14.42203 -14.40301
 Alpha  occ. eigenvalues --  -14.38883 -10.38750 -10.38367 -10.35720 -10.34733
 Alpha  occ. eigenvalues --  -10.31578 -10.31532 -10.31499 -10.31042 -10.30825
 Alpha  occ. eigenvalues --  -10.30807 -10.30702 -10.30096 -10.29740 -10.29479
 Alpha  occ. eigenvalues --  -10.28585 -10.28484 -10.28414 -10.28370 -10.28142
 Alpha  occ. eigenvalues --  -10.28089 -10.27845 -10.27804 -10.27586 -10.27529
 Alpha  occ. eigenvalues --  -10.27468 -10.27079 -10.26775 -10.26671 -10.26544
 Alpha  occ. eigenvalues --  -10.26455 -10.26349 -10.26247 -10.26206 -10.26084
 Alpha  occ. eigenvalues --  -10.26024 -10.25958 -10.25878 -10.25702 -10.25523
 Alpha  occ. eigenvalues --  -10.25208 -10.25205 -10.25082 -10.25021 -10.25012
 Alpha  occ. eigenvalues --  -10.24910 -10.24758 -10.24688 -10.24612 -10.24475
 Alpha  occ. eigenvalues --  -10.24431 -10.24303 -10.24247 -10.24094 -10.23992
 Alpha  occ. eigenvalues --  -10.23789  -3.18225  -1.93112  -1.92682  -1.92518
 Alpha  occ. eigenvalues --   -1.17114  -1.16581  -1.10868  -1.09458  -1.08968
 Alpha  occ. eigenvalues --   -1.07914  -1.05198  -1.03985  -1.03802  -1.02106
 Alpha  occ. eigenvalues --   -0.91347  -0.90903  -0.90181  -0.89515  -0.89112
 Alpha  occ. eigenvalues --   -0.88881  -0.88137  -0.87685  -0.87494  -0.87369
 Alpha  occ. eigenvalues --   -0.86042  -0.85643  -0.84192  -0.83579  -0.82960
 Alpha  occ. eigenvalues --   -0.82274  -0.81533  -0.81325  -0.80816  -0.80026
 Alpha  occ. eigenvalues --   -0.79574  -0.78432  -0.78084  -0.77001  -0.75848
 Alpha  occ. eigenvalues --   -0.75650  -0.75410  -0.75106  -0.74530  -0.74355
 Alpha  occ. eigenvalues --   -0.73301  -0.72870  -0.71831  -0.70688  -0.69756
 Alpha  occ. eigenvalues --   -0.69006  -0.68354  -0.67624  -0.66908  -0.65641
 Alpha  occ. eigenvalues --   -0.65355  -0.64994  -0.64752  -0.64154  -0.63414
 Alpha  occ. eigenvalues --   -0.62998  -0.62341  -0.62247  -0.62142  -0.60647
 Alpha  occ. eigenvalues --   -0.60310  -0.59638  -0.59229  -0.58506  -0.58234
 Alpha  occ. eigenvalues --   -0.57497  -0.57085  -0.56377  -0.55826  -0.55764
 Alpha  occ. eigenvalues --   -0.55113  -0.54790  -0.54634  -0.54389  -0.54233
 Alpha  occ. eigenvalues --   -0.53860  -0.53608  -0.53411  -0.53006  -0.52914
 Alpha  occ. eigenvalues --   -0.52547  -0.52401  -0.52287  -0.52067  -0.51697
 Alpha  occ. eigenvalues --   -0.51477  -0.50983  -0.50787  -0.50654  -0.50453
 Alpha  occ. eigenvalues --   -0.50198  -0.50096  -0.49942  -0.49721  -0.49578
 Alpha  occ. eigenvalues --   -0.49453  -0.49095  -0.49059  -0.48759  -0.48695
 Alpha  occ. eigenvalues --   -0.48522  -0.48499  -0.48241  -0.48220  -0.47961
 Alpha  occ. eigenvalues --   -0.47690  -0.47473  -0.47287  -0.47049  -0.46861
 Alpha  occ. eigenvalues --   -0.46512  -0.46171  -0.45996  -0.45955  -0.45606
 Alpha  occ. eigenvalues --   -0.45406  -0.45337  -0.45220  -0.45008  -0.44865
 Alpha  occ. eigenvalues --   -0.44723  -0.44576  -0.44529  -0.44461  -0.43853
 Alpha  occ. eigenvalues --   -0.43706  -0.43533  -0.43502  -0.43416  -0.43020
 Alpha  occ. eigenvalues --   -0.42947  -0.42713  -0.42587  -0.42502  -0.42364
 Alpha  occ. eigenvalues --   -0.42245  -0.42109  -0.42003  -0.41836  -0.41325
 Alpha  occ. eigenvalues --   -0.40998  -0.40854  -0.40677  -0.40318  -0.39809
 Alpha  occ. eigenvalues --   -0.39655  -0.39446  -0.39261  -0.39052  -0.38615
 Alpha  occ. eigenvalues --   -0.38283  -0.38220  -0.37562  -0.37442  -0.37038
 Alpha  occ. eigenvalues --   -0.36923  -0.36559  -0.36324  -0.36088  -0.35987
 Alpha  occ. eigenvalues --   -0.35780  -0.35030  -0.34904  -0.34749  -0.34357
 Alpha  occ. eigenvalues --   -0.34350  -0.33773  -0.33140  -0.31559  -0.31467
 Alpha  occ. eigenvalues --   -0.30547  -0.30322  -0.29845  -0.29673  -0.24134
 Alpha  occ. eigenvalues --   -0.21505
 Alpha virt. eigenvalues --   -0.08991  -0.01755   0.00195   0.01294   0.02454
 Alpha virt. eigenvalues --    0.05252   0.05800   0.06015   0.06417   0.07387
 Alpha virt. eigenvalues --    0.07763   0.08775   0.08880   0.09035   0.09369

 Mulliken charges:
               1
     1  Mg   0.822967
     2  C   -0.021973
     3  C   -0.053078
     4  C   -0.084271
     5  C   -0.047880
     6  N   -0.290445
     7  C   -0.030213
     8  C   -0.048428
     9  C   -0.049871
    10  C    0.055044
    11  C    0.073355
    12  C    0.045181
    13  C    0.085770
    14  C    0.104210
    15  O   -0.206320
    16  O   -0.344206
    17  N   -0.354476
    18  C    0.121982
    19  C   -0.138495
    20  C   -0.046602
    21  C    0.126658
    22  C    0.109903
    23  C    0.000098
    24  O   -0.188594
    25  C    0.042578
    26  N   -0.261076
    27  C    0.083041
    28  C   -0.093691
    29  C    0.010889
    30  C    0.009966
    31  C    0.043949
    32  C   -0.004184
    33  C    0.029376
    34  N   -0.315822
    35  C    0.068400
    36  C   -0.162127
    37  C    0.025292
    38  C    0.121024
    39  C    0.119665
    40  C    0.009063
    41  O   -0.176376
    42  C   -0.035782
    43  C    0.198500
    44  O   -0.177444
    45  O   -0.329067
    46  C    0.163554
    47  C    0.266810
    48  C   -0.145417
    49  C   -0.175979
    50  C    0.087577
    51  C    0.089001
    52  C    0.029697
    53  C    0.034426
    54  C   -0.163208
    55  C    0.057209
    56  C    0.060577
    57  C    0.015776
    58  C    0.041483
    59  C   -0.147864
    60  C    0.053496
    61  C    0.096308
    62  C    0.000736
    63  C    0.052555
    64  C   -0.171862
    65  C    0.059432
    66  C    0.037568
    67  H   -0.030289
    68  H    0.006032
    69  H   -0.037309
    70  H    0.030828
    71  H    0.019163
    72  H    0.014463
    73  H    0.010487
    74  H    0.017790
    75  H    0.004722
    76  H    0.052305
    77  H   -0.002650
    78  H    0.019167
    79  H    0.023198
    80  H    0.021865
    81  H    0.025004
    82  H    0.022994
    83  H    0.020187
    84  H    0.045993
    85  H    0.021777
    86  H    0.012202
    87  H    0.008084
    88  H    0.029726
    89  H    0.035918
    90  H    0.007291
    91  H    0.011213
    92  H    0.023876
    93  H    0.012554
    94  H    0.029708
    95  H    0.047428
    96  H    0.031611
    97  H   -0.000899
    98  H    0.049039
    99  H    0.022211
   100  H    0.040864
   101  H    0.048266
   102  H    0.047296
   103  H    0.037494
   104  H    0.006711
   105  H    0.014125
   106  H    0.003944
   107  H    0.031139
   108  H    0.010944
   109  H   -0.013426
   110  H    0.004224
   111  H    0.015971
   112  H   -0.009072
   113  H    0.000899
   114  H   -0.012546
   115  H    0.017637
   116  H    0.009708
   117  H    0.008374
   118  H   -0.003505
   119  H   -0.009401
   120  H   -0.006788
   121  H   -0.010200
   122  H    0.000270
   123  H    0.000627
   124  H   -0.000549
   125  H   -0.003149
   126  H   -0.009333
   127  H    0.012563
   128  H   -0.013207
   129  H   -0.003358
   130  H   -0.015638
   131  H   -0.002457
   132  H   -0.028041
   133  H   -0.008034
   134  H    0.006950
   135  H    0.013843
   136  H    0.002434
   137  H    0.003111
   138  H    0.012595
   139  H   -0.003310
   140  H    0.007977
 Sum of Mulliken charges =  -0.00000

 Dipole moment (field-independent basis, Debye):
    X=             -2.1972    Y=              3.6623    Z=             -0.5330  Tot=              4.3040
 Quadrupole moment (field-independent basis, Debye-Ang):
   XX=           -395.4216   YY=           -410.9153   ZZ=           -409.0836
   XY=             11.7396   XZ=             25.5990   YZ=              8.5101

 Normal termination of Gaussian 16 at Thu May  5 11:38:17 2022.
