 Gaussian 16, Revision A.03,
 Gaussian 16:  ES64L-G16RevA.03 25-Dec-2016

 ---------------------------------
 #p PBE1PBE/Def2SVP td=(nstates=5)
 ---------------------------------

 -----------------------------------------------------
 step_851_chromophore_16 TDDFT with PBE1PBE functional
 -----------------------------------------------------
 Symbolic Z-matrix:
 Charge =  0 Multiplicity = 1

                         Standard orientation:
 ---------------------------------------------------------------------
 Center     Atomic      Atomic             Coordinates (Angstroms)
 Number     Number       Type             X           Y           Z
 ---------------------------------------------------------------------
      1         12           0        6.074923    0.688803    0.403652
      2          6           0        3.964270   -2.137505    0.261499
      3          6           0        3.625752    2.506444   -1.219779
      4          6           0        8.311990    3.176606   -0.046310
      5          6           0        8.721876   -1.446979    1.292315
      6          7           0        4.121792    0.152344   -0.583956
      7          6           0        3.371797   -0.978844   -0.315153
      8          6           0        1.955974   -0.856157   -0.995460
      9          6           0        1.864283    0.688679   -1.373753
     10          6           0        3.322935    1.148670   -1.124354
     11          6           0        1.347938    1.007777   -2.728227
     12          6           0        0.864882   -1.396671   -0.007292
     13          6           0       -0.587624   -0.925159   -0.273350
     14          6           0       -1.691963   -1.909358   -0.093452
     15          8           0       -2.161829   -2.285767    0.941326
     16          8           0       -2.085744   -2.351662   -1.312384
     17          7           0        5.935490    2.636759   -0.399841
     18          6           0        4.817339    3.234678   -0.845891
     19          6           0        5.097332    4.648090   -1.044488
     20          6           0        6.485785    4.886960   -0.763776
     21          6           0        7.003203    3.487023   -0.457593
     22          6           0        3.981382    5.633147   -1.390491
     23          6           0        7.268583    6.167207   -0.750589
     24          8           0        8.475777    6.239197   -0.630965
     25          6           0        6.460679    7.479564   -0.825653
     26          7           0        8.194430    0.764779    0.618791
     27          6           0        8.812631    1.932044    0.359296
     28          6           0       10.251459    1.959115    0.867076
     29          6           0       10.440205    0.439740    1.273376
     30          6           0        9.042539   -0.133760    1.111419
     31          6           0       11.276233    2.593560   -0.237676
     32          6           0       10.905136    0.267102    2.770001
     33          6           0        9.786378    0.174024    3.861052
     34          7           0        6.312800   -1.376527    0.814866
     35          6           0        7.461308   -2.106704    1.109129
     36          6           0        7.075681   -3.464958    1.337072
     37          6           0        5.693369   -3.497404    1.130505
     38          6           0        5.308076   -2.211715    0.726679
     39          6           0        7.897301   -4.680242    1.838954
     40          6           0        4.567496   -4.386193    1.075407
     41          8           0        4.448456   -5.548105    1.436173
     42          6           0        3.298353   -3.561845    0.459729
     43          6           0        2.946128   -4.222053   -0.808383
     44          8           0        3.600637   -4.289746   -1.802442
     45          8           0        1.690001   -4.754827   -0.643968
     46          6           0        1.353937   -5.787938   -1.571237
     47          6           0       -3.238593   -3.300912   -1.339221
     48          6           0       -4.481677   -2.488098   -1.143117
     49          6           0       -5.669924   -3.029047   -0.889717
     50          6           0       -6.018286   -4.484576   -0.877447
     51          6           0       -6.851333   -2.099688   -0.673010
     52          6           0       -7.714591   -1.861753   -1.907161
     53          6           0       -8.003165   -0.265329   -2.072753
     54          6           0       -9.429563   -0.010094   -2.549324
     55          6           0       -9.456495    0.572595   -3.990367
     56          6           0      -10.225508    0.859500   -1.627234
     57          6           0      -11.726409    0.484710   -1.384761
     58          6           0      -12.576901    1.746149   -1.005430
     59          6           0      -13.689171    1.492386    0.016114
     60          6           0      -14.613531    0.352305   -0.497095
     61          6           0      -14.442195    2.760664    0.303259
     62          6           0      -14.180571    3.234673    1.792034
     63          6           0      -15.197040    2.841002    2.868431
     64          6           0      -14.796119    1.617110    3.735157
     65          6           0      -14.127806    2.107749    5.025537
     66          6           0      -16.026795    0.770628    4.253815
     67          1           0        2.776044    3.107907   -1.550272
     68          1           0        9.021008    4.006965   -0.060521
     69          1           0        9.461353   -2.160300    1.661882
     70          1           0        1.888236   -1.513217   -1.862679
     71          1           0        1.208409    1.154665   -0.639074
     72          1           0        1.970207    1.765594   -3.203260
     73          1           0        0.331249    1.399145   -2.687894
     74          1           0        1.285825    0.204086   -3.462926
     75          1           0        1.178239   -0.942288    0.932909
     76          1           0        0.861455   -2.485357    0.043647
     77          1           0       -0.602560   -0.542835   -1.294655
     78          1           0       -0.963040   -0.058177    0.271049
     79          1           0        2.967969    5.302028   -1.616374
     80          1           0        4.332719    6.307056   -2.170991
     81          1           0        3.841593    6.241595   -0.496744
     82          1           0        6.050000    7.449593   -1.835054
     83          1           0        7.105223    8.357306   -0.865532
     84          1           0        5.707216    7.567768   -0.042564
     85          1           0       10.334001    2.572004    1.765210
     86          1           0       11.176850   -0.004699    0.603262
     87          1           0       12.077103    1.859683   -0.329055
     88          1           0       11.656847    3.541973    0.141440
     89          1           0       10.894750    2.754581   -1.245226
     90          1           0       11.530325    1.149124    2.911352
     91          1           0       11.489364   -0.653168    2.752373
     92          1           0        8.898659    0.593795    3.386195
     93          1           0        9.999047    0.837126    4.700137
     94          1           0        9.713570   -0.854310    4.214826
     95          1           0        7.978141   -5.523146    1.152180
     96          1           0        7.330413   -4.976544    2.721369
     97          1           0        8.859078   -4.389965    2.262556
     98          1           0        2.570008   -3.710435    1.257135
     99          1           0        0.504222   -5.456421   -2.168622
    100          1           0        1.075522   -6.619275   -0.923827
    101          1           0        2.097960   -6.081216   -2.312069
    102          1           0       -3.196243   -3.960132   -0.471915
    103          1           0       -3.174713   -3.842882   -2.283648
    104          1           0       -4.194310   -1.443322   -1.025499
    105          1           0       -6.573104   -4.638611    0.047972
    106          1           0       -5.124612   -5.105204   -0.808369
    107          1           0       -6.677939   -4.858025   -1.661292
    108          1           0       -6.389093   -1.205666   -0.255949
    109          1           0       -7.451957   -2.643669    0.055369
    110          1           0       -8.701962   -2.283796   -1.719573
    111          1           0       -7.243090   -2.277122   -2.797256
    112          1           0       -7.285264    0.054730   -2.828312
    113          1           0       -7.803493    0.372208   -1.212023
    114          1           0       -9.952673   -0.964661   -2.601417
    115          1           0      -10.437654    0.999241   -4.196933
    116          1           0       -9.132677   -0.337841   -4.492702
    117          1           0       -8.660739    1.316938   -4.038011
    118          1           0      -10.154853    1.870465   -2.030025
    119          1           0       -9.791638    0.680770   -0.643517
    120          1           0      -11.764179   -0.333240   -0.664740
    121          1           0      -12.110455    0.030680   -2.298336
    122          1           0      -13.126337    2.153683   -1.853076
    123          1           0      -11.942585    2.486191   -0.516397
    124          1           0      -13.185388    1.112362    0.904552
    125          1           0      -14.280560   -0.627496   -0.155825
    126          1           0      -14.482316    0.175051   -1.564597
    127          1           0      -15.677989    0.505049   -0.318453
    128          1           0      -15.519841    2.612907    0.222335
    129          1           0      -14.170305    3.587300   -0.353113
    130          1           0      -14.241277    4.323082    1.786711
    131          1           0      -13.158315    3.007927    2.093004
    132          1           0      -16.107912    2.574440    2.332837
    133          1           0      -15.589414    3.651566    3.483897
    134          1           0      -14.220064    0.960762    3.082578
    135          1           0      -14.072577    3.191080    5.134736
    136          1           0      -13.137287    1.652342    4.992216
    137          1           0      -14.567362    1.706252    5.937592
    138          1           0      -16.065459    0.526537    5.315279
    139          1           0      -15.919208   -0.212777    3.795896
    140          1           0      -16.933017    1.240879    3.871172
 ---------------------------------------------------------------------

 SCF Done:  E(RPBE1PBE) =  -3005.36387128     A.U. after   15 cycles

 Excitation energies and oscillator strengths:

 Excited State   1:      Singlet-A      1.8730 eV  661.94 nm  f=0.3855  <S**2>=0.000
     245 -> 248        0.17353
     246 -> 247        0.69219
     246 <- 247       -0.10617
 This state for optimization and/or second-order correction.
 Total Energy, E(TD-HF/TD-DFT) =  -3005.29503828
 Copying the excited state density for this state as the 1-particle RhoCI density.

 Excited State   2:      Singlet-A      2.2205 eV  558.37 nm  f=0.1264  <S**2>=0.000
     245 -> 247        0.65698
     246 -> 248       -0.24655

 Excited State   3:      Singlet-A      2.8903 eV  428.96 nm  f=0.0007  <S**2>=0.000
     242 -> 247       -0.11804
     243 -> 247        0.66534
     243 -> 249       -0.10777
     244 -> 247        0.10369

 Excited State   4:      Singlet-A      3.0878 eV  401.53 nm  f=0.0002  <S**2>=0.000
     240 -> 247        0.16296
     241 -> 247        0.38802
     242 -> 247        0.54169

 Excited State   5:      Singlet-A      3.1091 eV  398.78 nm  f=0.0023  <S**2>=0.000
     240 -> 247        0.32534
     241 -> 247        0.42790
     242 -> 247       -0.41521

 The electronic state is 1-A.
 Alpha  occ. eigenvalues --  -46.93233 -19.25209 -19.24989 -19.19956 -19.19488
 Alpha  occ. eigenvalues --  -19.19455 -19.19115 -14.42072 -14.41661 -14.39847
 Alpha  occ. eigenvalues --  -14.38643 -10.35737 -10.35396 -10.32698 -10.32059
 Alpha  occ. eigenvalues --  -10.29409 -10.29128 -10.28998 -10.28591 -10.28423
 Alpha  occ. eigenvalues --  -10.28317 -10.27973 -10.27939 -10.27449 -10.27226
 Alpha  occ. eigenvalues --  -10.26534 -10.26327 -10.26185 -10.26170 -10.25843
 Alpha  occ. eigenvalues --  -10.25715 -10.25700 -10.25684 -10.25347 -10.25184
 Alpha  occ. eigenvalues --  -10.24898 -10.24725 -10.24341 -10.24302 -10.24243
 Alpha  occ. eigenvalues --  -10.24028 -10.23892 -10.23719 -10.23585 -10.23524
 Alpha  occ. eigenvalues --  -10.23472 -10.23467 -10.23387 -10.23196 -10.23175
 Alpha  occ. eigenvalues --  -10.22766 -10.22746 -10.22702 -10.22691 -10.22579
 Alpha  occ. eigenvalues --  -10.22474 -10.22319 -10.22308 -10.22256 -10.22248
 Alpha  occ. eigenvalues --  -10.21986 -10.21886 -10.21805 -10.21495 -10.21407
 Alpha  occ. eigenvalues --  -10.21174  -3.15209  -1.88035  -1.87585  -1.87423
 Alpha  occ. eigenvalues --   -1.11896  -1.11413  -1.05461  -1.04365  -1.03815
 Alpha  occ. eigenvalues --   -1.02816  -0.99848  -0.98814  -0.98363  -0.96732
 Alpha  occ. eigenvalues --   -0.85772  -0.85047  -0.84291  -0.83723  -0.83258
 Alpha  occ. eigenvalues --   -0.83173  -0.82430  -0.81999  -0.81608  -0.81478
 Alpha  occ. eigenvalues --   -0.80510  -0.79921  -0.78426  -0.77890  -0.77164
 Alpha  occ. eigenvalues --   -0.76481  -0.75744  -0.75533  -0.75061  -0.74269
 Alpha  occ. eigenvalues --   -0.73786  -0.72616  -0.72404  -0.71335  -0.70205
 Alpha  occ. eigenvalues --   -0.69862  -0.69726  -0.69213  -0.68613  -0.68529
 Alpha  occ. eigenvalues --   -0.67709  -0.67278  -0.66234  -0.65015  -0.64152
 Alpha  occ. eigenvalues --   -0.63249  -0.62785  -0.62095  -0.61173  -0.59967
 Alpha  occ. eigenvalues --   -0.59829  -0.59522  -0.59167  -0.58718  -0.57509
 Alpha  occ. eigenvalues --   -0.57160  -0.56842  -0.56641  -0.56544  -0.54995
 Alpha  occ. eigenvalues --   -0.54809  -0.54205  -0.53773  -0.53172  -0.52721
 Alpha  occ. eigenvalues --   -0.52055  -0.51592  -0.50920  -0.50344  -0.50295
 Alpha  occ. eigenvalues --   -0.49656  -0.49330  -0.49170  -0.48869  -0.48786
 Alpha  occ. eigenvalues --   -0.48359  -0.48015  -0.47686  -0.47647  -0.47441
 Alpha  occ. eigenvalues --   -0.47147  -0.46985  -0.46772  -0.46540  -0.46209
 Alpha  occ. eigenvalues --   -0.46018  -0.45565  -0.45332  -0.45293  -0.45042
 Alpha  occ. eigenvalues --   -0.44744  -0.44585  -0.44479  -0.44288  -0.44156
 Alpha  occ. eigenvalues --   -0.44015  -0.43763  -0.43669  -0.43359  -0.43281
 Alpha  occ. eigenvalues --   -0.43086  -0.43054  -0.42846  -0.42771  -0.42541
 Alpha  occ. eigenvalues --   -0.42296  -0.42154  -0.41827  -0.41777  -0.41617
 Alpha  occ. eigenvalues --   -0.41310  -0.40989  -0.40634  -0.40595  -0.40391
 Alpha  occ. eigenvalues --   -0.40096  -0.39976  -0.39962  -0.39744  -0.39536
 Alpha  occ. eigenvalues --   -0.39465  -0.39277  -0.39252  -0.39210  -0.38607
 Alpha  occ. eigenvalues --   -0.38470  -0.38341  -0.38212  -0.38178  -0.37899
 Alpha  occ. eigenvalues --   -0.37730  -0.37456  -0.37376  -0.37313  -0.37212
 Alpha  occ. eigenvalues --   -0.37050  -0.36972  -0.36740  -0.36729  -0.36285
 Alpha  occ. eigenvalues --   -0.35786  -0.35727  -0.35646  -0.35107  -0.34746
 Alpha  occ. eigenvalues --   -0.34570  -0.34245  -0.33991  -0.33894  -0.33493
 Alpha  occ. eigenvalues --   -0.33214  -0.33069  -0.32583  -0.32272  -0.32079
 Alpha  occ. eigenvalues --   -0.31810  -0.31420  -0.31404  -0.31034  -0.30892
 Alpha  occ. eigenvalues --   -0.30653  -0.29944  -0.29848  -0.29572  -0.29545
 Alpha  occ. eigenvalues --   -0.29233  -0.28804  -0.28633  -0.27181  -0.26206
 Alpha  occ. eigenvalues --   -0.25960  -0.25705  -0.25172  -0.25124  -0.21095
 Alpha  occ. eigenvalues --   -0.19130
 Alpha virt. eigenvalues --   -0.11444  -0.05299  -0.03884  -0.02014  -0.01581
 Alpha virt. eigenvalues --    0.00715   0.01240   0.01538   0.01875   0.03211
 Alpha virt. eigenvalues --    0.04477   0.04654   0.05393   0.05626   0.06038

 Mulliken charges:
               1
     1  Mg   0.961891
     2  C   -0.018189
     3  C   -0.049881
     4  C   -0.069338
     5  C   -0.037392
     6  N   -0.390249
     7  C    0.041043
     8  C   -0.112882
     9  C   -0.135071
    10  C    0.093992
    11  C    0.019294
    12  C   -0.009855
    13  C    0.008515
    14  C    0.174903
    15  O   -0.240405
    16  O   -0.375005
    17  N   -0.469019
    18  C    0.153397
    19  C   -0.171356
    20  C   -0.088919
    21  C    0.158592
    22  C    0.049702
    23  C    0.048449
    24  O   -0.228267
    25  C   -0.033245
    26  N   -0.373352
    27  C    0.114247
    28  C   -0.163089
    29  C   -0.063026
    30  C    0.038101
    31  C   -0.015423
    32  C   -0.060073
    33  C   -0.049839
    34  N   -0.446271
    35  C    0.095173
    36  C   -0.178704
    37  C   -0.025231
    38  C    0.173074
    39  C    0.067583
    40  C    0.104198
    41  O   -0.219826
    42  C   -0.151295
    43  C    0.294156
    44  O   -0.215276
    45  O   -0.362851
    46  C    0.109923
    47  C    0.223016
    48  C   -0.147404
    49  C   -0.224835
    50  C    0.026900
    51  C    0.023298
    52  C   -0.033879
    53  C   -0.014418
    54  C   -0.246552
    55  C   -0.008718
    56  C    0.001645
    57  C   -0.042795
    58  C   -0.016443
    59  C   -0.235394
    60  C   -0.003969
    61  C    0.043322
    62  C   -0.065818
    63  C    0.001484
    64  C   -0.268799
    65  C    0.001481
    66  C   -0.021311
    67  H    0.002385
    68  H    0.037066
    69  H   -0.003947
    70  H    0.067444
    71  H    0.056817
    72  H    0.042180
    73  H    0.036883
    74  H    0.044457
    75  H    0.039392
    76  H    0.089685
    77  H    0.035209
    78  H    0.050585
    79  H    0.048301
    80  H    0.049446
    81  H    0.053225
    82  H    0.050973
    83  H    0.047870
    84  H    0.071576
    85  H    0.058213
    86  H    0.048410
    87  H    0.036157
    88  H    0.056504
    89  H    0.063071
    90  H    0.041013
    91  H    0.043525
    92  H    0.057013
    93  H    0.041932
    94  H    0.056679
    95  H    0.074233
    96  H    0.059690
    97  H    0.026884
    98  H    0.083500
    99  H    0.044126
   100  H    0.063004
   101  H    0.068954
   102  H    0.073868
   103  H    0.063697
   104  H    0.035634
   105  H    0.041614
   106  H    0.031013
   107  H    0.057640
   108  H    0.042612
   109  H    0.020596
   110  H    0.036926
   111  H    0.047513
   112  H    0.024566
   113  H    0.030618
   114  H    0.025706
   115  H    0.045665
   116  H    0.039517
   117  H    0.036854
   118  H    0.029129
   119  H    0.025632
   120  H    0.024864
   121  H    0.022320
   122  H    0.033498
   123  H    0.034542
   124  H    0.037379
   125  H    0.024391
   126  H    0.018663
   127  H    0.039411
   128  H    0.018687
   129  H    0.028065
   130  H    0.018753
   131  H    0.030606
   132  H    0.005424
   133  H    0.023133
   134  H    0.046859
   135  H    0.040104
   136  H    0.030246
   137  H    0.029951
   138  H    0.038811
   139  H    0.024562
   140  H    0.034764
 Sum of Mulliken charges =  -0.00000

 Dipole moment (field-independent basis, Debye):
    X=             -2.1457    Y=              3.2734    Z=             -0.3758  Tot=              3.9320
 Quadrupole moment (field-independent basis, Debye-Ang):
   XX=           -389.4146   YY=           -408.6786   ZZ=           -406.5848
   XY=              9.2850   XZ=             27.4591   YZ=              8.3574

 Normal termination of Gaussian 16 at Thu May  5 12:16:17 2022.
