 Gaussian 16, Revision A.03,
 Gaussian 16:  ES64L-G16RevA.03 25-Dec-2016

 --------------------------------
 #p wB97XD/Def2SVP td=(nstates=5)
 --------------------------------

 ----------------------------------------------------
 step_851_chromophore_16 TDDFT with wB97XD functional
 ----------------------------------------------------
 Symbolic Z-matrix:
 Charge =  0 Multiplicity = 1

                         Standard orientation:
 ---------------------------------------------------------------------
 Center     Atomic      Atomic             Coordinates (Angstroms)
 Number     Number       Type             X           Y           Z
 ---------------------------------------------------------------------
      1         12           0        6.074923    0.688803    0.403652
      2          6           0        3.964270   -2.137505    0.261499
      3          6           0        3.625752    2.506444   -1.219779
      4          6           0        8.311990    3.176606   -0.046310
      5          6           0        8.721876   -1.446979    1.292315
      6          7           0        4.121792    0.152344   -0.583956
      7          6           0        3.371797   -0.978844   -0.315153
      8          6           0        1.955974   -0.856157   -0.995460
      9          6           0        1.864283    0.688679   -1.373753
     10          6           0        3.322935    1.148670   -1.124354
     11          6           0        1.347938    1.007777   -2.728227
     12          6           0        0.864882   -1.396671   -0.007292
     13          6           0       -0.587624   -0.925159   -0.273350
     14          6           0       -1.691963   -1.909358   -0.093452
     15          8           0       -2.161829   -2.285767    0.941326
     16          8           0       -2.085744   -2.351662   -1.312384
     17          7           0        5.935490    2.636759   -0.399841
     18          6           0        4.817339    3.234678   -0.845891
     19          6           0        5.097332    4.648090   -1.044488
     20          6           0        6.485785    4.886960   -0.763776
     21          6           0        7.003203    3.487023   -0.457593
     22          6           0        3.981382    5.633147   -1.390491
     23          6           0        7.268583    6.167207   -0.750589
     24          8           0        8.475777    6.239197   -0.630965
     25          6           0        6.460679    7.479564   -0.825653
     26          7           0        8.194430    0.764779    0.618791
     27          6           0        8.812631    1.932044    0.359296
     28          6           0       10.251459    1.959115    0.867076
     29          6           0       10.440205    0.439740    1.273376
     30          6           0        9.042539   -0.133760    1.111419
     31          6           0       11.276233    2.593560   -0.237676
     32          6           0       10.905136    0.267102    2.770001
     33          6           0        9.786378    0.174024    3.861052
     34          7           0        6.312800   -1.376527    0.814866
     35          6           0        7.461308   -2.106704    1.109129
     36          6           0        7.075681   -3.464958    1.337072
     37          6           0        5.693369   -3.497404    1.130505
     38          6           0        5.308076   -2.211715    0.726679
     39          6           0        7.897301   -4.680242    1.838954
     40          6           0        4.567496   -4.386193    1.075407
     41          8           0        4.448456   -5.548105    1.436173
     42          6           0        3.298353   -3.561845    0.459729
     43          6           0        2.946128   -4.222053   -0.808383
     44          8           0        3.600637   -4.289746   -1.802442
     45          8           0        1.690001   -4.754827   -0.643968
     46          6           0        1.353937   -5.787938   -1.571237
     47          6           0       -3.238593   -3.300912   -1.339221
     48          6           0       -4.481677   -2.488098   -1.143117
     49          6           0       -5.669924   -3.029047   -0.889717
     50          6           0       -6.018286   -4.484576   -0.877447
     51          6           0       -6.851333   -2.099688   -0.673010
     52          6           0       -7.714591   -1.861753   -1.907161
     53          6           0       -8.003165   -0.265329   -2.072753
     54          6           0       -9.429563   -0.010094   -2.549324
     55          6           0       -9.456495    0.572595   -3.990367
     56          6           0      -10.225508    0.859500   -1.627234
     57          6           0      -11.726409    0.484710   -1.384761
     58          6           0      -12.576901    1.746149   -1.005430
     59          6           0      -13.689171    1.492386    0.016114
     60          6           0      -14.613531    0.352305   -0.497095
     61          6           0      -14.442195    2.760664    0.303259
     62          6           0      -14.180571    3.234673    1.792034
     63          6           0      -15.197040    2.841002    2.868431
     64          6           0      -14.796119    1.617110    3.735157
     65          6           0      -14.127806    2.107749    5.025537
     66          6           0      -16.026795    0.770628    4.253815
     67          1           0        2.776044    3.107907   -1.550272
     68          1           0        9.021008    4.006965   -0.060521
     69          1           0        9.461353   -2.160300    1.661882
     70          1           0        1.888236   -1.513217   -1.862679
     71          1           0        1.208409    1.154665   -0.639074
     72          1           0        1.970207    1.765594   -3.203260
     73          1           0        0.331249    1.399145   -2.687894
     74          1           0        1.285825    0.204086   -3.462926
     75          1           0        1.178239   -0.942288    0.932909
     76          1           0        0.861455   -2.485357    0.043647
     77          1           0       -0.602560   -0.542835   -1.294655
     78          1           0       -0.963040   -0.058177    0.271049
     79          1           0        2.967969    5.302028   -1.616374
     80          1           0        4.332719    6.307056   -2.170991
     81          1           0        3.841593    6.241595   -0.496744
     82          1           0        6.050000    7.449593   -1.835054
     83          1           0        7.105223    8.357306   -0.865532
     84          1           0        5.707216    7.567768   -0.042564
     85          1           0       10.334001    2.572004    1.765210
     86          1           0       11.176850   -0.004699    0.603262
     87          1           0       12.077103    1.859683   -0.329055
     88          1           0       11.656847    3.541973    0.141440
     89          1           0       10.894750    2.754581   -1.245226
     90          1           0       11.530325    1.149124    2.911352
     91          1           0       11.489364   -0.653168    2.752373
     92          1           0        8.898659    0.593795    3.386195
     93          1           0        9.999047    0.837126    4.700137
     94          1           0        9.713570   -0.854310    4.214826
     95          1           0        7.978141   -5.523146    1.152180
     96          1           0        7.330413   -4.976544    2.721369
     97          1           0        8.859078   -4.389965    2.262556
     98          1           0        2.570008   -3.710435    1.257135
     99          1           0        0.504222   -5.456421   -2.168622
    100          1           0        1.075522   -6.619275   -0.923827
    101          1           0        2.097960   -6.081216   -2.312069
    102          1           0       -3.196243   -3.960132   -0.471915
    103          1           0       -3.174713   -3.842882   -2.283648
    104          1           0       -4.194310   -1.443322   -1.025499
    105          1           0       -6.573104   -4.638611    0.047972
    106          1           0       -5.124612   -5.105204   -0.808369
    107          1           0       -6.677939   -4.858025   -1.661292
    108          1           0       -6.389093   -1.205666   -0.255949
    109          1           0       -7.451957   -2.643669    0.055369
    110          1           0       -8.701962   -2.283796   -1.719573
    111          1           0       -7.243090   -2.277122   -2.797256
    112          1           0       -7.285264    0.054730   -2.828312
    113          1           0       -7.803493    0.372208   -1.212023
    114          1           0       -9.952673   -0.964661   -2.601417
    115          1           0      -10.437654    0.999241   -4.196933
    116          1           0       -9.132677   -0.337841   -4.492702
    117          1           0       -8.660739    1.316938   -4.038011
    118          1           0      -10.154853    1.870465   -2.030025
    119          1           0       -9.791638    0.680770   -0.643517
    120          1           0      -11.764179   -0.333240   -0.664740
    121          1           0      -12.110455    0.030680   -2.298336
    122          1           0      -13.126337    2.153683   -1.853076
    123          1           0      -11.942585    2.486191   -0.516397
    124          1           0      -13.185388    1.112362    0.904552
    125          1           0      -14.280560   -0.627496   -0.155825
    126          1           0      -14.482316    0.175051   -1.564597
    127          1           0      -15.677989    0.505049   -0.318453
    128          1           0      -15.519841    2.612907    0.222335
    129          1           0      -14.170305    3.587300   -0.353113
    130          1           0      -14.241277    4.323082    1.786711
    131          1           0      -13.158315    3.007927    2.093004
    132          1           0      -16.107912    2.574440    2.332837
    133          1           0      -15.589414    3.651566    3.483897
    134          1           0      -14.220064    0.960762    3.082578
    135          1           0      -14.072577    3.191080    5.134736
    136          1           0      -13.137287    1.652342    4.992216
    137          1           0      -14.567362    1.706252    5.937592
    138          1           0      -16.065459    0.526537    5.315279
    139          1           0      -15.919208   -0.212777    3.795896
    140          1           0      -16.933017    1.240879    3.871172
 ---------------------------------------------------------------------

 SCF Done:  E(RwB97XD) =  -3007.87346055     A.U. after   20 cycles

 Excitation energies and oscillator strengths:

 Excited State   1:      Singlet-A      1.6637 eV  745.23 nm  f=0.3979  <S**2>=0.000
     245 -> 248       -0.18434
     246 -> 247        0.68364
     245 <- 248       -0.11641
 This state for optimization and/or second-order correction.
 Total Energy, E(TD-HF/TD-DFT) =  -3007.81232037
 Copying the excited state density for this state as the 1-particle RhoCI density.

 Excited State   2:      Singlet-A      2.1508 eV  576.45 nm  f=0.1316  <S**2>=0.000
     245 -> 247        0.64614
     246 -> 248        0.27208

 Excited State   3:      Singlet-A      3.4103 eV  363.55 nm  f=0.0017  <S**2>=0.000
     241 -> 247       -0.15096
     242 -> 251       -0.10562
     244 -> 247        0.63831
     244 -> 249        0.13226
     246 -> 248       -0.10557

 Excited State   4:      Singlet-A      3.5031 eV  353.93 nm  f=0.0856  <S**2>=0.000
     241 -> 247        0.52885
     242 -> 247        0.24747
     246 -> 248       -0.32439

 Excited State   5:      Singlet-A      3.5948 eV  344.90 nm  f=0.0453  <S**2>=0.000
     241 -> 247       -0.17003
     242 -> 247        0.54328
     242 -> 249        0.21275
     242 -> 251       -0.18572
     244 -> 251       -0.12192
     246 -> 248        0.22050

 The electronic state is 1-A.
 Alpha  occ. eigenvalues --  -46.96183 -19.29732 -19.29521 -19.24652 -19.24487
 Alpha  occ. eigenvalues --  -19.24129 -19.23725 -14.47084 -14.46793 -14.44906
 Alpha  occ. eigenvalues --  -14.43448 -10.42545 -10.42176 -10.39719 -10.38738
 Alpha  occ. eigenvalues --  -10.35572 -10.35560 -10.35472 -10.35143 -10.34917
 Alpha  occ. eigenvalues --  -10.34844 -10.34399 -10.34053 -10.33958 -10.33458
 Alpha  occ. eigenvalues --  -10.32715 -10.32541 -10.32463 -10.32318 -10.32311
 Alpha  occ. eigenvalues --  -10.32138 -10.31911 -10.31899 -10.31606 -10.31570
 Alpha  occ. eigenvalues --  -10.31504 -10.31071 -10.30710 -10.30684 -10.30542
 Alpha  occ. eigenvalues --  -10.30480 -10.30251 -10.30227 -10.30105 -10.29920
 Alpha  occ. eigenvalues --  -10.29882 -10.29833 -10.29824 -10.29529 -10.29467
 Alpha  occ. eigenvalues --  -10.29152 -10.29130 -10.29040 -10.28982 -10.28953
 Alpha  occ. eigenvalues --  -10.28851 -10.28673 -10.28617 -10.28577 -10.28346
 Alpha  occ. eigenvalues --  -10.28314 -10.28303 -10.28176 -10.27931 -10.27809
 Alpha  occ. eigenvalues --  -10.27593  -3.22037  -1.95608  -1.95158  -1.94996
 Alpha  occ. eigenvalues --   -1.19249  -1.18769  -1.13116  -1.11667  -1.11135
 Alpha  occ. eigenvalues --   -1.10136  -1.07199  -1.06005  -1.05867  -1.04117
 Alpha  occ. eigenvalues --   -0.93287  -0.92710  -0.91954  -0.91354  -0.90907
 Alpha  occ. eigenvalues --   -0.90810  -0.90004  -0.89602  -0.89348  -0.89262
 Alpha  occ. eigenvalues --   -0.87976  -0.87551  -0.86067  -0.85486  -0.84823
 Alpha  occ. eigenvalues --   -0.84138  -0.83447  -0.83246  -0.82717  -0.81924
 Alpha  occ. eigenvalues --   -0.81440  -0.80390  -0.79998  -0.78921  -0.77779
 Alpha  occ. eigenvalues --   -0.77508  -0.77331  -0.76906  -0.76311  -0.76193
 Alpha  occ. eigenvalues --   -0.75245  -0.74829  -0.73793  -0.72632  -0.71673
 Alpha  occ. eigenvalues --   -0.70887  -0.70360  -0.69646  -0.68793  -0.67520
 Alpha  occ. eigenvalues --   -0.67314  -0.66968  -0.66687  -0.66142  -0.65204
 Alpha  occ. eigenvalues --   -0.64819  -0.64208  -0.64185  -0.64103  -0.62535
 Alpha  occ. eigenvalues --   -0.62345  -0.61582  -0.61205  -0.60495  -0.60164
 Alpha  occ. eigenvalues --   -0.59479  -0.59016  -0.58352  -0.57732  -0.57693
 Alpha  occ. eigenvalues --   -0.57056  -0.56742  -0.56572  -0.56271  -0.56165
 Alpha  occ. eigenvalues --   -0.55772  -0.55472  -0.55354  -0.54922  -0.54849
 Alpha  occ. eigenvalues --   -0.54446  -0.54339  -0.54184  -0.53981  -0.53579
 Alpha  occ. eigenvalues --   -0.53410  -0.52918  -0.52667  -0.52557  -0.52345
 Alpha  occ. eigenvalues --   -0.52130  -0.52046  -0.51909  -0.51630  -0.51469
 Alpha  occ. eigenvalues --   -0.51334  -0.51067  -0.50964  -0.50646  -0.50580
 Alpha  occ. eigenvalues --   -0.50460  -0.50379  -0.50183  -0.50127  -0.49918
 Alpha  occ. eigenvalues --   -0.49597  -0.49402  -0.49137  -0.48978  -0.48797
 Alpha  occ. eigenvalues --   -0.48453  -0.48111  -0.47864  -0.47843  -0.47504
 Alpha  occ. eigenvalues --   -0.47257  -0.47212  -0.47130  -0.46919  -0.46746
 Alpha  occ. eigenvalues --   -0.46635  -0.46491  -0.46418  -0.46378  -0.45755
 Alpha  occ. eigenvalues --   -0.45609  -0.45495  -0.45389  -0.45342  -0.44942
 Alpha  occ. eigenvalues --   -0.44898  -0.44601  -0.44551  -0.44418  -0.44282
 Alpha  occ. eigenvalues --   -0.44123  -0.44074  -0.43862  -0.43804  -0.43244
 Alpha  occ. eigenvalues --   -0.42858  -0.42729  -0.42597  -0.42195  -0.41710
 Alpha  occ. eigenvalues --   -0.41566  -0.41308  -0.41083  -0.40958  -0.40534
 Alpha  occ. eigenvalues --   -0.40141  -0.40119  -0.39520  -0.39289  -0.39079
 Alpha  occ. eigenvalues --   -0.38791  -0.38443  -0.38330  -0.38052  -0.37898
 Alpha  occ. eigenvalues --   -0.37623  -0.36866  -0.36771  -0.36657  -0.36344
 Alpha  occ. eigenvalues --   -0.36178  -0.35708  -0.35413  -0.33777  -0.33456
 Alpha  occ. eigenvalues --   -0.32757  -0.32334  -0.31869  -0.31777  -0.26055
 Alpha  occ. eigenvalues --   -0.23316
 Alpha virt. eigenvalues --   -0.07341   0.00168   0.02339   0.04392   0.04545
 Alpha virt. eigenvalues --    0.07498   0.08016   0.08258   0.08743   0.09909
 Alpha virt. eigenvalues --    0.10830   0.11484   0.12142   0.12379   0.12686

 Mulliken charges:
               1
     1  Mg   0.954606
     2  C   -0.029731
     3  C   -0.066934
     4  C   -0.087949
     5  C   -0.055203
     6  N   -0.358892
     7  C    0.011525
     8  C   -0.093124
     9  C   -0.105532
    10  C    0.084807
    11  C    0.024648
    12  C    0.007807
    13  C    0.028729
    14  C    0.161861
    15  O   -0.237168
    16  O   -0.374484
    17  N   -0.436702
    18  C    0.144276
    19  C   -0.158177
    20  C   -0.086095
    21  C    0.151085
    22  C    0.062332
    23  C    0.046266
    24  O   -0.221299
    25  C   -0.018993
    26  N   -0.334315
    27  C    0.103244
    28  C   -0.142892
    29  C   -0.041839
    30  C    0.031911
    31  C   -0.004074
    32  C   -0.049027
    33  C   -0.026986
    34  N   -0.405583
    35  C    0.082453
    36  C   -0.176618
    37  C   -0.022238
    38  C    0.155194
    39  C    0.079614
    40  C    0.085700
    41  O   -0.212382
    42  C   -0.108221
    43  C    0.267247
    44  O   -0.209260
    45  O   -0.360622
    46  C    0.125033
    47  C    0.240876
    48  C   -0.161733
    49  C   -0.207292
    50  C    0.039319
    51  C    0.044212
    52  C   -0.017148
    53  C   -0.004386
    54  C   -0.216564
    55  C    0.007707
    56  C    0.020193
    57  C   -0.029487
    58  C    0.004296
    59  C   -0.204353
    60  C    0.008342
    61  C    0.055361
    62  C   -0.046892
    63  C    0.014983
    64  C   -0.236716
    65  C    0.012436
    66  C   -0.007614
    67  H   -0.007568
    68  H    0.031307
    69  H   -0.010891
    70  H    0.057741
    71  H    0.045441
    72  H    0.035892
    73  H    0.032236
    74  H    0.040738
    75  H    0.030284
    76  H    0.075245
    77  H    0.023227
    78  H    0.045201
    79  H    0.047232
    80  H    0.043629
    81  H    0.047094
    82  H    0.043342
    83  H    0.047337
    84  H    0.066995
    85  H    0.047565
    86  H    0.039592
    87  H    0.030147
    88  H    0.051396
    89  H    0.057284
    90  H    0.031963
    91  H    0.036528
    92  H    0.043162
    93  H    0.036671
    94  H    0.051566
    95  H    0.070187
    96  H    0.053577
    97  H    0.020686
    98  H    0.078731
    99  H    0.039649
   100  H    0.059224
   101  H    0.065128
   102  H    0.066365
   103  H    0.060745
   104  H    0.031558
   105  H    0.035298
   106  H    0.025473
   107  H    0.053211
   108  H    0.033904
   109  H    0.011810
   110  H    0.027467
   111  H    0.039604
   112  H    0.015717
   113  H    0.022159
   114  H    0.010190
   115  H    0.039716
   116  H    0.031918
   117  H    0.029389
   118  H    0.019216
   119  H    0.014995
   120  H    0.016902
   121  H    0.011971
   122  H    0.023389
   123  H    0.023512
   124  H    0.021133
   125  H    0.018442
   126  H    0.010515
   127  H    0.033924
   128  H    0.008773
   129  H    0.021298
   130  H    0.011795
   131  H    0.019897
   132  H   -0.007175
   133  H    0.015950
   134  H    0.032317
   135  H    0.034283
   136  H    0.024332
   137  H    0.023382
   138  H    0.032704
   139  H    0.018539
   140  H    0.028302
 Sum of Mulliken charges =  -0.00000

 Dipole moment (field-independent basis, Debye):
    X=             -2.2448    Y=              3.8134    Z=             -0.5117  Tot=              4.4545
 Quadrupole moment (field-independent basis, Debye-Ang):
   XX=           -390.7094   YY=           -406.1872   ZZ=           -406.2069
   XY=             12.6971   XZ=             26.5660   YZ=              8.3304

 Normal termination of Gaussian 16 at Thu May  5 13:14:41 2022.
