 Gaussian 16, Revision A.03,
 Gaussian 16:  ES64L-G16RevA.03 25-Dec-2016

 --------------------
 #p ZINDO=(nstates=5)
 --------------------

 -----------------------------
 step_851_chromophore_16 ZINDO
 -----------------------------
 Symbolic Z-matrix:
 Charge =  0 Multiplicity = 1

                         Standard orientation:
 ---------------------------------------------------------------------
 Center     Atomic      Atomic             Coordinates (Angstroms)
 Number     Number       Type             X           Y           Z
 ---------------------------------------------------------------------
      1         12           0        6.074923    0.688803    0.403652
      2          6           0        3.964270   -2.137505    0.261499
      3          6           0        3.625752    2.506444   -1.219779
      4          6           0        8.311990    3.176606   -0.046310
      5          6           0        8.721876   -1.446979    1.292315
      6          7           0        4.121792    0.152344   -0.583956
      7          6           0        3.371797   -0.978844   -0.315153
      8          6           0        1.955974   -0.856157   -0.995460
      9          6           0        1.864283    0.688679   -1.373753
     10          6           0        3.322935    1.148670   -1.124354
     11          6           0        1.347938    1.007777   -2.728227
     12          6           0        0.864882   -1.396671   -0.007292
     13          6           0       -0.587624   -0.925159   -0.273350
     14          6           0       -1.691963   -1.909358   -0.093452
     15          8           0       -2.161829   -2.285767    0.941326
     16          8           0       -2.085744   -2.351662   -1.312384
     17          7           0        5.935490    2.636759   -0.399841
     18          6           0        4.817339    3.234678   -0.845891
     19          6           0        5.097332    4.648090   -1.044488
     20          6           0        6.485785    4.886960   -0.763776
     21          6           0        7.003203    3.487023   -0.457593
     22          6           0        3.981382    5.633147   -1.390491
     23          6           0        7.268583    6.167207   -0.750589
     24          8           0        8.475777    6.239197   -0.630965
     25          6           0        6.460679    7.479564   -0.825653
     26          7           0        8.194430    0.764779    0.618791
     27          6           0        8.812631    1.932044    0.359296
     28          6           0       10.251459    1.959115    0.867076
     29          6           0       10.440205    0.439740    1.273376
     30          6           0        9.042539   -0.133760    1.111419
     31          6           0       11.276233    2.593560   -0.237676
     32          6           0       10.905136    0.267102    2.770001
     33          6           0        9.786378    0.174024    3.861052
     34          7           0        6.312800   -1.376527    0.814866
     35          6           0        7.461308   -2.106704    1.109129
     36          6           0        7.075681   -3.464958    1.337072
     37          6           0        5.693369   -3.497404    1.130505
     38          6           0        5.308076   -2.211715    0.726679
     39          6           0        7.897301   -4.680242    1.838954
     40          6           0        4.567496   -4.386193    1.075407
     41          8           0        4.448456   -5.548105    1.436173
     42          6           0        3.298353   -3.561845    0.459729
     43          6           0        2.946128   -4.222053   -0.808383
     44          8           0        3.600637   -4.289746   -1.802442
     45          8           0        1.690001   -4.754827   -0.643968
     46          6           0        1.353937   -5.787938   -1.571237
     47          6           0       -3.238593   -3.300912   -1.339221
     48          6           0       -4.481677   -2.488098   -1.143117
     49          6           0       -5.669924   -3.029047   -0.889717
     50          6           0       -6.018286   -4.484576   -0.877447
     51          6           0       -6.851333   -2.099688   -0.673010
     52          6           0       -7.714591   -1.861753   -1.907161
     53          6           0       -8.003165   -0.265329   -2.072753
     54          6           0       -9.429563   -0.010094   -2.549324
     55          6           0       -9.456495    0.572595   -3.990367
     56          6           0      -10.225508    0.859500   -1.627234
     57          6           0      -11.726409    0.484710   -1.384761
     58          6           0      -12.576901    1.746149   -1.005430
     59          6           0      -13.689171    1.492386    0.016114
     60          6           0      -14.613531    0.352305   -0.497095
     61          6           0      -14.442195    2.760664    0.303259
     62          6           0      -14.180571    3.234673    1.792034
     63          6           0      -15.197040    2.841002    2.868431
     64          6           0      -14.796119    1.617110    3.735157
     65          6           0      -14.127806    2.107749    5.025537
     66          6           0      -16.026795    0.770628    4.253815
     67          1           0        2.776044    3.107907   -1.550272
     68          1           0        9.021008    4.006965   -0.060521
     69          1           0        9.461353   -2.160300    1.661882
     70          1           0        1.888236   -1.513217   -1.862679
     71          1           0        1.208409    1.154665   -0.639074
     72          1           0        1.970207    1.765594   -3.203260
     73          1           0        0.331249    1.399145   -2.687894
     74          1           0        1.285825    0.204086   -3.462926
     75          1           0        1.178239   -0.942288    0.932909
     76          1           0        0.861455   -2.485357    0.043647
     77          1           0       -0.602560   -0.542835   -1.294655
     78          1           0       -0.963040   -0.058177    0.271049
     79          1           0        2.967969    5.302028   -1.616374
     80          1           0        4.332719    6.307056   -2.170991
     81          1           0        3.841593    6.241595   -0.496744
     82          1           0        6.050000    7.449593   -1.835054
     83          1           0        7.105223    8.357306   -0.865532
     84          1           0        5.707216    7.567768   -0.042564
     85          1           0       10.334001    2.572004    1.765210
     86          1           0       11.176850   -0.004699    0.603262
     87          1           0       12.077103    1.859683   -0.329055
     88          1           0       11.656847    3.541973    0.141440
     89          1           0       10.894750    2.754581   -1.245226
     90          1           0       11.530325    1.149124    2.911352
     91          1           0       11.489364   -0.653168    2.752373
     92          1           0        8.898659    0.593795    3.386195
     93          1           0        9.999047    0.837126    4.700137
     94          1           0        9.713570   -0.854310    4.214826
     95          1           0        7.978141   -5.523146    1.152180
     96          1           0        7.330413   -4.976544    2.721369
     97          1           0        8.859078   -4.389965    2.262556
     98          1           0        2.570008   -3.710435    1.257135
     99          1           0        0.504222   -5.456421   -2.168622
    100          1           0        1.075522   -6.619275   -0.923827
    101          1           0        2.097960   -6.081216   -2.312069
    102          1           0       -3.196243   -3.960132   -0.471915
    103          1           0       -3.174713   -3.842882   -2.283648
    104          1           0       -4.194310   -1.443322   -1.025499
    105          1           0       -6.573104   -4.638611    0.047972
    106          1           0       -5.124612   -5.105204   -0.808369
    107          1           0       -6.677939   -4.858025   -1.661292
    108          1           0       -6.389093   -1.205666   -0.255949
    109          1           0       -7.451957   -2.643669    0.055369
    110          1           0       -8.701962   -2.283796   -1.719573
    111          1           0       -7.243090   -2.277122   -2.797256
    112          1           0       -7.285264    0.054730   -2.828312
    113          1           0       -7.803493    0.372208   -1.212023
    114          1           0       -9.952673   -0.964661   -2.601417
    115          1           0      -10.437654    0.999241   -4.196933
    116          1           0       -9.132677   -0.337841   -4.492702
    117          1           0       -8.660739    1.316938   -4.038011
    118          1           0      -10.154853    1.870465   -2.030025
    119          1           0       -9.791638    0.680770   -0.643517
    120          1           0      -11.764179   -0.333240   -0.664740
    121          1           0      -12.110455    0.030680   -2.298336
    122          1           0      -13.126337    2.153683   -1.853076
    123          1           0      -11.942585    2.486191   -0.516397
    124          1           0      -13.185388    1.112362    0.904552
    125          1           0      -14.280560   -0.627496   -0.155825
    126          1           0      -14.482316    0.175051   -1.564597
    127          1           0      -15.677989    0.505049   -0.318453
    128          1           0      -15.519841    2.612907    0.222335
    129          1           0      -14.170305    3.587300   -0.353113
    130          1           0      -14.241277    4.323082    1.786711
    131          1           0      -13.158315    3.007927    2.093004
    132          1           0      -16.107912    2.574440    2.332837
    133          1           0      -15.589414    3.651566    3.483897
    134          1           0      -14.220064    0.960762    3.082578
    135          1           0      -14.072577    3.191080    5.134736
    136          1           0      -13.137287    1.652342    4.992216
    137          1           0      -14.567362    1.706252    5.937592
    138          1           0      -16.065459    0.526537    5.315279
    139          1           0      -15.919208   -0.212777    3.795896
    140          1           0      -16.933017    1.240879    3.871172
 ---------------------------------------------------------------------

 SCF Done:  E(RZINDO/S) =  -474.384009344     A.U. after   19 cycles

 Excitation energies and oscillator strengths:

 Excited State   1:      Singlet-A      1.2541 eV  988.60 nm  f=0.6151  <S**2>=0.000
     175 ->178         0.19124
     176 ->177         0.66317
 This state for optimization and/or second-order correction.
 Total Energy, E(CIS/TDA) =  -474.337920708
 Copying the excited state density for this state as the 1-particle RhoCI density.

 Excited State   2:      Singlet-A      1.9005 eV  652.37 nm  f=0.0718  <S**2>=0.000
     175 ->177         0.56665
     176 ->178        -0.39512

 Excited State   3:      Singlet-A      2.9923 eV  414.34 nm  f=0.1907  <S**2>=0.000
     170 ->177         0.27123
     170 ->179         0.25820
     170 ->181         0.30664
     170 ->185         0.16116
     170 ->187         0.11837
     170 ->201        -0.10376
     171 ->177         0.11476
     173 ->177         0.13933
     175 ->177         0.15665
     176 ->178         0.25028

 Excited State   4:      Singlet-A      3.0253 eV  409.83 nm  f=0.3887  <S**2>=0.000
     168 ->177        -0.15340
     168 ->179         0.16923
     168 ->181        -0.12641
     170 ->177        -0.10893
     170 ->181        -0.12971
     171 ->177         0.12470
     175 ->177         0.21545
     176 ->178         0.34688
     176 ->179         0.30832
     176 ->180         0.20604

 Excited State   5:      Singlet-A      3.0285 eV  409.39 nm  f=0.1283  <S**2>=0.000
     168 ->177         0.27458
     168 ->178        -0.13282
     168 ->179        -0.34792
     168 ->181         0.23389
     168 ->185        -0.19932
     168 ->187         0.11279
     175 ->177         0.12357
     176 ->178         0.19363
     176 ->179         0.21457
     176 ->180         0.13192

 The electronic state is 1-A.
 Alpha  occ. eigenvalues --   -1.84851  -1.81662  -1.79049  -1.75223  -1.74116
 Alpha  occ. eigenvalues --   -1.70347  -1.66117  -1.62137  -1.59153  -1.57602
 Alpha  occ. eigenvalues --   -1.55654  -1.53045  -1.48671  -1.48284  -1.46173
 Alpha  occ. eigenvalues --   -1.45244  -1.43756  -1.40863  -1.38922  -1.38526
 Alpha  occ. eigenvalues --   -1.36432  -1.33188  -1.32006  -1.31102  -1.27161
 Alpha  occ. eigenvalues --   -1.26543  -1.25321  -1.22102  -1.20810  -1.17602
 Alpha  occ. eigenvalues --   -1.17029  -1.15147  -1.15067  -1.13740  -1.13275
 Alpha  occ. eigenvalues --   -1.12447  -1.11348  -1.10802  -1.04898  -1.03773
 Alpha  occ. eigenvalues --   -1.02861  -1.01179  -0.99773  -0.98107  -0.97678
 Alpha  occ. eigenvalues --   -0.96256  -0.94482  -0.93130  -0.92930  -0.92526
 Alpha  occ. eigenvalues --   -0.90256  -0.89888  -0.89254  -0.87466  -0.86084
 Alpha  occ. eigenvalues --   -0.85275  -0.83780  -0.82588  -0.81451  -0.80977
 Alpha  occ. eigenvalues --   -0.80813  -0.79342  -0.77685  -0.76867  -0.76793
 Alpha  occ. eigenvalues --   -0.75823  -0.75702  -0.75078  -0.74376  -0.73699
 Alpha  occ. eigenvalues --   -0.73079  -0.72400  -0.72103  -0.71798  -0.70109
 Alpha  occ. eigenvalues --   -0.69821  -0.69522  -0.69115  -0.68236  -0.67894
 Alpha  occ. eigenvalues --   -0.67242  -0.67124  -0.66365  -0.65783  -0.65658
 Alpha  occ. eigenvalues --   -0.64804  -0.64603  -0.63973  -0.63581  -0.63302
 Alpha  occ. eigenvalues --   -0.63193  -0.62720  -0.62379  -0.62067  -0.61949
 Alpha  occ. eigenvalues --   -0.61788  -0.60710  -0.60327  -0.60176  -0.59946
 Alpha  occ. eigenvalues --   -0.58921  -0.58831  -0.58634  -0.58459  -0.58162
 Alpha  occ. eigenvalues --   -0.57692  -0.57354  -0.57108  -0.56716  -0.56246
 Alpha  occ. eigenvalues --   -0.56041  -0.55829  -0.55719  -0.55053  -0.54907
 Alpha  occ. eigenvalues --   -0.54784  -0.54090  -0.53647  -0.52990  -0.52829
 Alpha  occ. eigenvalues --   -0.52609  -0.52470  -0.52300  -0.51990  -0.51390
 Alpha  occ. eigenvalues --   -0.51325  -0.51125  -0.51004  -0.50161  -0.50090
 Alpha  occ. eigenvalues --   -0.49986  -0.49759  -0.49441  -0.49296  -0.49089
 Alpha  occ. eigenvalues --   -0.48507  -0.48259  -0.48051  -0.47945  -0.47630
 Alpha  occ. eigenvalues --   -0.47582  -0.47191  -0.46857  -0.46554  -0.46155
 Alpha  occ. eigenvalues --   -0.45873  -0.45823  -0.45713  -0.45577  -0.45459
 Alpha  occ. eigenvalues --   -0.45272  -0.44665  -0.44450  -0.44050  -0.43584
 Alpha  occ. eigenvalues --   -0.43515  -0.42967  -0.42765  -0.42660  -0.42053
 Alpha  occ. eigenvalues --   -0.41795  -0.41272  -0.41046  -0.38816  -0.38386
 Alpha  occ. eigenvalues --   -0.38201  -0.36996  -0.35935  -0.34738  -0.34288
 Alpha  occ. eigenvalues --   -0.33443  -0.32802  -0.32263  -0.31947  -0.26681
 Alpha  occ. eigenvalues --   -0.22080
 Alpha virt. eigenvalues --   -0.08813  -0.02113  -0.00612   0.00883   0.01340
 Alpha virt. eigenvalues --    0.02810   0.03031   0.03527   0.04746   0.05487
 Alpha virt. eigenvalues --    0.06305   0.06460   0.07242   0.08046   0.08178

 Mulliken charges:
               1
     1  Mg   0.432723
     2  C   -0.048662
     3  C   -0.089169
     4  C   -0.058005
     5  C   -0.055872
     6  N   -0.294580
     7  C    0.107395
     8  C   -0.001211
     9  C    0.013707
    10  C    0.138212
    11  C   -0.044821
    12  C   -0.022469
    13  C   -0.001979
    14  C    0.482714
    15  O   -0.518295
    16  O   -0.287184
    17  N   -0.308069
    18  C    0.124456
    19  C    0.016106
    20  C   -0.052388
    21  C    0.123836
    22  C   -0.046421
    23  C    0.335008
    24  O   -0.515041
    25  C   -0.034962
    26  N   -0.251366
    27  C    0.140588
    28  C   -0.015310
    29  C   -0.003649
    30  C    0.130147
    31  C   -0.057505
    32  C   -0.036041
    33  C   -0.056052
    34  N   -0.317956
    35  C    0.071362
    36  C    0.029675
    37  C   -0.055747
    38  C    0.134494
    39  C   -0.043583
    40  C    0.324854
    41  O   -0.528365
    42  C    0.039846
    43  C    0.501147
    44  O   -0.513106
    45  O   -0.273959
    46  C    0.076036
    47  C    0.094045
    48  C   -0.085261
    49  C   -0.004829
    50  C   -0.040806
    51  C   -0.028557
    52  C   -0.033747
    53  C   -0.042738
    54  C   -0.017535
    55  C   -0.067867
    56  C   -0.040110
    57  C   -0.042129
    58  C   -0.033339
    59  C   -0.005945
    60  C   -0.065224
    61  C   -0.028093
    62  C   -0.038229
    63  C   -0.032505
    64  C   -0.014014
    65  C   -0.055453
    66  C   -0.067508
    67  H    0.022167
    68  H    0.053067
    69  H    0.022931
    70  H    0.042122
    71  H    0.032545
    72  H    0.019089
    73  H    0.013047
    74  H    0.024421
    75  H    0.022997
    76  H    0.042134
    77  H    0.022873
    78  H    0.038148
    79  H    0.032185
    80  H    0.028253
    81  H    0.024462
    82  H    0.034290
    83  H    0.034678
    84  H    0.042385
    85  H    0.038438
    86  H    0.034576
    87  H    0.015884
    88  H    0.027193
    89  H    0.032766
    90  H    0.020982
    91  H    0.019236
    92  H    0.030254
    93  H    0.015233
    94  H    0.031404
    95  H    0.046068
    96  H    0.029762
    97  H    0.017845
    98  H    0.065257
    99  H    0.027082
   100  H    0.036533
   101  H    0.052916
   102  H    0.057486
   103  H    0.042697
   104  H    0.041010
   105  H    0.023146
   106  H    0.019585
   107  H    0.032929
   108  H    0.028163
   109  H    0.020133
   110  H    0.023029
   111  H    0.031629
   112  H    0.011126
   113  H    0.028027
   114  H    0.013609
   115  H    0.029191
   116  H    0.023250
   117  H    0.020604
   118  H    0.024582
   119  H    0.014989
   120  H    0.022818
   121  H    0.013949
   122  H    0.025346
   123  H    0.016247
   124  H    0.020375
   125  H    0.014361
   126  H    0.012487
   127  H    0.022690
   128  H    0.020367
   129  H    0.020604
   130  H    0.003349
   131  H    0.021291
   132  H    0.004442
   133  H    0.022648
   134  H    0.030570
   135  H    0.023194
   136  H    0.009971
   137  H    0.019633
   138  H    0.027730
   139  H    0.006822
   140  H    0.022002
 Sum of Mulliken charges =  -0.00000

 Dipole moment (field-independent basis, Debye):
    X=             -3.8953    Y=              6.5382    Z=             -0.6592  Tot=              7.6391
 N-N= 4.192639125331D+03 E-N= 0.000000000000D+00  KE=-9.059866864214D+03
 Leave Link  601 at Thu May  5 13:40:57 2022, MaxMem=  6710886400 cpu:               0.7 elap:               0.0
 (Enter /sw/apps/gaussian-16.0/g16/l9999.exe)
 1\1\GINC-BP1-COMPUTE141\SP\RZINDO CIS\STO-3G\C55H74Mg1N4O6\OF15641\05-
 May-2022\0\\#p ZINDO=(nstates=5)\\step_851_chromophore_16 ZINDO\\0,1\M
 g,0,40.821,41.578,27.534\C,0,40.026,43.766,30.188\C,0,41.778,39.216,29
 .867\C,0,42.182,39.759,25.037\C,0,40.589,44.31,25.334\N,0,41.099,41.60
 8,29.77\C,0,40.502,42.503,30.64\C,0,40.72,42.03,32.127\C,0,41.201,40.5
 2,31.964\C,0,41.461,40.448,30.438\C,0,42.354,40.1,32.799\C,0,39.395,42
 .255,32.935\C,0,39.244,41.429,34.238\C,0,38.636,42.092,35.426\O,0,37.4

 Normal termination of Gaussian 16 at Thu May  5 13:40:57 2022.
