 Gaussian 16, Revision A.03,
 Gaussian 16:  ES64L-G16RevA.03 25-Dec-2016

 ------------------------------
 #p blyp/Def2SVP td=(nstates=5)
 ------------------------------

 ---------------------------------------------------
 step_1301_chromophore_26 TDDFT with blyp functional
 ---------------------------------------------------
 Symbolic Z-matrix:
 Charge =  0 Multiplicity = 1

                         Standard orientation:
 ---------------------------------------------------------------------
 Center     Atomic      Atomic             Coordinates (Angstroms)
 Number     Number       Type             X           Y           Z
 ---------------------------------------------------------------------
      1         12           0       -3.827289    1.246088    0.340025
      2          6           0       -4.977609   -1.982754   -0.269517
      3          6           0       -2.759430    0.149942    3.419046
      4          6           0       -2.705306    4.313095    0.896312
      5          6           0       -4.522930    2.005515   -3.030824
      6          7           0       -3.820133   -0.713561    1.373692
      7          6           0       -4.280135   -1.913747    0.890162
      8          6           0       -4.010802   -3.075905    1.813848
      9          6           0       -3.476729   -2.297697    3.121874
     10          6           0       -3.392209   -0.861457    2.662955
     11          6           0       -4.384861   -2.432342    4.437012
     12          6           0       -2.924546   -4.089523    1.359153
     13          6           0       -1.898831   -3.753801    0.243646
     14          6           0       -0.509339   -4.565663    0.252764
     15          8           0       -0.452705   -5.761334    0.415630
     16          8           0        0.533509   -3.713945    0.091259
     17          7           0       -2.867204    2.123693    1.957218
     18          6           0       -2.524163    1.498346    3.093861
     19          6           0       -1.858913    2.451767    3.944077
     20          6           0       -1.857985    3.647020    3.236151
     21          6           0       -2.518529    3.444650    1.968678
     22          6           0       -1.373311    2.064263    5.280993
     23          6           0       -1.351682    4.985032    3.754341
     24          8           0       -1.299182    5.173162    4.980091
     25          6           0       -0.940052    6.191573    2.757900
     26          7           0       -3.640297    2.874910   -0.849813
     27          6           0       -3.338783    4.059898   -0.295630
     28          6           0       -3.280606    5.182507   -1.443992
     29          6           0       -3.799170    4.359985   -2.686974
     30          6           0       -4.014425    3.003844   -2.164851
     31          6           0       -4.129857    6.387262   -0.994121
     32          6           0       -2.844508    4.435222   -3.880890
     33          6           0       -3.530702    4.861417   -5.149477
     34          7           0       -4.669880    0.246336   -1.376683
     35          6           0       -5.012852    0.707631   -2.613285
     36          6           0       -5.757323   -0.315929   -3.339930
     37          6           0       -5.744369   -1.372978   -2.407759
     38          6           0       -5.064396   -0.965302   -1.298139
     39          6           0       -6.542585   -0.245018   -4.582664
     40          6           0       -6.245857   -2.726526   -2.187213
     41          8           0       -7.041428   -3.432928   -2.907726
     42          6           0       -5.722064   -3.240914   -0.792781
     43          6           0       -6.910263   -3.759960   -0.006335
     44          8           0       -7.075733   -4.897467    0.366987
     45          8           0       -7.820181   -2.712190    0.230395
     46          6           0       -9.015574   -3.096333    1.078992
     47          6           0        1.883342   -4.395739    0.166607
     48          6           0        3.015350   -3.403017   -0.117928
     49          6           0        3.413704   -2.978301   -1.335746
     50          6           0        2.700731   -3.254318   -2.651055
     51          6           0        4.704634   -2.125859   -1.430672
     52          6           0        4.370785   -0.689208   -1.238075
     53          6           0        5.406793    0.204495   -1.988736
     54          6           0        5.819814    1.510108   -1.226129
     55          6           0        5.390880    2.754335   -2.063966
     56          6           0        7.343202    1.518732   -0.796854
     57          6           0        7.593809    1.152746    0.665301
     58          6           0        8.143691   -0.353612    0.775644
     59          6           0        9.564320   -0.338879    1.348195
     60          6           0        9.695907   -1.256744    2.534897
     61          6           0       10.673226   -0.735560    0.318437
     62          6           0       12.018703    0.048020    0.608178
     63          6           0       13.223924   -0.745528    0.215010
     64          6           0       14.084223   -0.036053   -0.815608
     65          6           0       13.416069    0.323390   -2.206276
     66          6           0       15.324406   -0.852336   -1.102090
     67          1           0       -2.316752   -0.175741    4.362790
     68          1           0       -2.539404    5.372300    1.101707
     69          1           0       -4.890263    2.394019   -3.983219
     70          1           0       -4.928782   -3.616128    2.045103
     71          1           0       -2.461372   -2.660625    3.280171
     72          1           0       -4.599437   -1.533716    5.014675
     73          1           0       -3.799619   -3.041162    5.126733
     74          1           0       -5.342371   -2.930566    4.284501
     75          1           0       -3.384175   -4.959787    0.892736
     76          1           0       -2.338594   -4.419341    2.217936
     77          1           0       -1.721635   -2.680128    0.190787
     78          1           0       -2.471371   -3.889064   -0.674363
     79          1           0       -0.627538    2.829174    5.495516
     80          1           0       -0.824265    1.123764    5.318018
     81          1           0       -2.103588    2.078031    6.090729
     82          1           0       -1.806537    6.806769    2.516861
     83          1           0       -0.483882    5.913679    1.807043
     84          1           0       -0.269398    6.859939    3.298873
     85          1           0       -2.235235    5.489710   -1.458896
     86          1           0       -4.744398    4.783673   -3.028055
     87          1           0       -4.439215    6.887654   -1.911940
     88          1           0       -3.609524    7.193159   -0.477536
     89          1           0       -5.035437    5.995812   -0.531759
     90          1           0       -2.344372    3.466815   -3.894064
     91          1           0       -1.985409    5.076809   -3.682778
     92          1           0       -3.830853    5.897716   -5.306263
     93          1           0       -4.496644    4.373041   -5.276279
     94          1           0       -3.067189    4.381194   -6.011237
     95          1           0       -5.966514   -0.883117   -5.253166
     96          1           0       -6.676493    0.720382   -5.068840
     97          1           0       -7.454849   -0.841328   -4.551596
     98          1           0       -5.062549   -4.081956   -1.007506
     99          1           0       -8.839709   -2.645486    2.055399
    100          1           0       -9.163670   -4.161581    1.255289
    101          1           0       -9.963078   -2.903755    0.575623
    102          1           0        1.957395   -5.168401   -0.599416
    103          1           0        2.043960   -5.005481    1.055632
    104          1           0        3.653790   -3.139416    0.724763
    105          1           0        1.961016   -4.048931   -2.562773
    106          1           0        3.428916   -3.641093   -3.364405
    107          1           0        2.243495   -2.336589   -3.021110
    108          1           0        5.165184   -2.253903   -2.410580
    109          1           0        5.450343   -2.473985   -0.717005
    110          1           0        4.276601   -0.528835   -0.164161
    111          1           0        3.438830   -0.357026   -1.696195
    112          1           0        5.006082    0.356782   -2.990495
    113          1           0        6.268357   -0.455943   -2.086379
    114          1           0        5.228430    1.491786   -0.309729
    115          1           0        6.288535    3.356518   -2.202394
    116          1           0        4.702750    3.332995   -1.448950
    117          1           0        4.968760    2.506559   -3.038945
    118          1           0        7.831773    2.468608   -1.017765
    119          1           0        7.924394    0.934316   -1.510319
    120          1           0        6.654484    1.117036    1.217868
    121          1           0        8.237313    1.852486    1.197992
    122          1           0        8.224320   -0.913114   -0.157129
    123          1           0        7.458291   -0.866205    1.449983
    124          1           0        9.858177    0.640650    1.726670
    125          1           0        8.755614   -1.160385    3.079107
    126          1           0       10.566368   -1.003495    3.139933
    127          1           0        9.796282   -2.312927    2.285719
    128          1           0       10.397897   -0.582763   -0.724509
    129          1           0       10.851796   -1.801861    0.459483
    130          1           0       12.053048    0.105001    1.695822
    131          1           0       12.061081    1.086866    0.281409
    132          1           0       12.804143   -1.609654   -0.299620
    133          1           0       13.741120   -1.061219    1.120397
    134          1           0       14.449818    0.888023   -0.367272
    135          1           0       12.327667    0.355019   -2.148538
    136          1           0       13.777721   -0.364159   -2.970481
    137          1           0       13.683657    1.350205   -2.456712
    138          1           0       15.236027   -1.894866   -0.793276
    139          1           0       16.214178   -0.448621   -0.618845
    140          1           0       15.591399   -0.947985   -2.154157
 ---------------------------------------------------------------------

 SCF Done:  E(RB-LYP) =  -3007.37423515     A.U. after   22 cycles

 Excitation energies and oscillator strengths:

 Excited State   1:      Singlet-A      1.6898 eV  733.70 nm  f=0.0019  <S**2>=0.000
     244 -> 247        0.62509
     245 -> 247       -0.32891
 This state for optimization and/or second-order correction.
 Total Energy, E(TD-HF/TD-DFT) =  -3007.31213454
 Copying the excited state density for this state as the 1-particle RhoCI density.

 Excited State   2:      Singlet-A      1.8290 eV  677.89 nm  f=0.3070  <S**2>=0.000
     245 -> 248        0.15981
     246 -> 247        0.69291
     246 <- 247       -0.15326

 Excited State   3:      Singlet-A      1.9379 eV  639.79 nm  f=0.0015  <S**2>=0.000
     243 -> 247        0.70325

 Excited State   4:      Singlet-A      2.0747 eV  597.60 nm  f=0.0816  <S**2>=0.000
     244 -> 247        0.30873
     245 -> 247        0.56992
     246 -> 248       -0.22909
     246 -> 249       -0.11666

 Excited State   5:      Singlet-A      2.3853 eV  519.79 nm  f=0.0001  <S**2>=0.000
     241 -> 247        0.70684

 The electronic state is 1-A.
 Alpha  occ. eigenvalues --  -46.27040 -18.82620 -18.81638 -18.77058 -18.76957
 Alpha  occ. eigenvalues --  -18.76350 -18.75108 -14.03661 -14.03624 -14.01033
 Alpha  occ. eigenvalues --  -14.00614 -10.04339 -10.04096 -10.00922  -9.99532
 Alpha  occ. eigenvalues --   -9.98171  -9.97498  -9.96988  -9.96731  -9.96531
 Alpha  occ. eigenvalues --   -9.96238  -9.96017  -9.95758  -9.95368  -9.94714
 Alpha  occ. eigenvalues --   -9.94565  -9.94484  -9.94307  -9.94080  -9.93750
 Alpha  occ. eigenvalues --   -9.93689  -9.93682  -9.93609  -9.93425  -9.93253
 Alpha  occ. eigenvalues --   -9.93237  -9.93171  -9.93007  -9.93002  -9.92978
 Alpha  occ. eigenvalues --   -9.92869  -9.92862  -9.92841  -9.92719  -9.92639
 Alpha  occ. eigenvalues --   -9.92392  -9.92360  -9.92322  -9.92184  -9.92112
 Alpha  occ. eigenvalues --   -9.91884  -9.91758  -9.91691  -9.91544  -9.91303
 Alpha  occ. eigenvalues --   -9.91294  -9.91235  -9.91180  -9.91168  -9.91135
 Alpha  occ. eigenvalues --   -9.91031  -9.90740  -9.90636  -9.90518  -9.90512
 Alpha  occ. eigenvalues --   -9.90131  -2.91750  -1.72192  -1.71610  -1.71471
 Alpha  occ. eigenvalues --   -0.97821  -0.96445  -0.91028  -0.90258  -0.89218
 Alpha  occ. eigenvalues --   -0.88655  -0.87387  -0.86978  -0.86397  -0.85800
 Alpha  occ. eigenvalues --   -0.75253  -0.73974  -0.73685  -0.73306  -0.72365
 Alpha  occ. eigenvalues --   -0.72193  -0.71990  -0.71223  -0.71055  -0.70604
 Alpha  occ. eigenvalues --   -0.70122  -0.68851  -0.68457  -0.67892  -0.67151
 Alpha  occ. eigenvalues --   -0.66591  -0.66047  -0.65188  -0.64770  -0.64458
 Alpha  occ. eigenvalues --   -0.64346  -0.62855  -0.62412  -0.62005  -0.61061
 Alpha  occ. eigenvalues --   -0.60591  -0.60294  -0.59911  -0.59277  -0.58990
 Alpha  occ. eigenvalues --   -0.58530  -0.57874  -0.57087  -0.55593  -0.55413
 Alpha  occ. eigenvalues --   -0.54048  -0.53748  -0.53090  -0.52450  -0.52391
 Alpha  occ. eigenvalues --   -0.51669  -0.51323  -0.51190  -0.50834  -0.50175
 Alpha  occ. eigenvalues --   -0.49889  -0.49747  -0.48987  -0.48514  -0.46564
 Alpha  occ. eigenvalues --   -0.46450  -0.46113  -0.45915  -0.45370  -0.44779
 Alpha  occ. eigenvalues --   -0.43970  -0.43761  -0.43192  -0.43082  -0.42368
 Alpha  occ. eigenvalues --   -0.42174  -0.41946  -0.41749  -0.41498  -0.41232
 Alpha  occ. eigenvalues --   -0.40885  -0.40378  -0.40293  -0.40069  -0.40002
 Alpha  occ. eigenvalues --   -0.39929  -0.39676  -0.39636  -0.39205  -0.39135
 Alpha  occ. eigenvalues --   -0.38941  -0.38690  -0.38485  -0.38375  -0.38211
 Alpha  occ. eigenvalues --   -0.38111  -0.37833  -0.37721  -0.37639  -0.37344
 Alpha  occ. eigenvalues --   -0.37330  -0.37138  -0.36897  -0.36628  -0.36484
 Alpha  occ. eigenvalues --   -0.36374  -0.36189  -0.36046  -0.35916  -0.35418
 Alpha  occ. eigenvalues --   -0.35259  -0.34962  -0.34907  -0.34893  -0.34795
 Alpha  occ. eigenvalues --   -0.34308  -0.34301  -0.34188  -0.34156  -0.34059
 Alpha  occ. eigenvalues --   -0.33990  -0.33874  -0.33715  -0.33502  -0.33445
 Alpha  occ. eigenvalues --   -0.33391  -0.33311  -0.33111  -0.32913  -0.32507
 Alpha  occ. eigenvalues --   -0.32327  -0.32276  -0.32098  -0.31928  -0.31858
 Alpha  occ. eigenvalues --   -0.31788  -0.31372  -0.31252  -0.30995  -0.30702
 Alpha  occ. eigenvalues --   -0.30600  -0.30454  -0.30361  -0.30260  -0.29883
 Alpha  occ. eigenvalues --   -0.29614  -0.29491  -0.29442  -0.29350  -0.29061
 Alpha  occ. eigenvalues --   -0.28880  -0.28831  -0.28675  -0.27853  -0.27838
 Alpha  occ. eigenvalues --   -0.27445  -0.27376  -0.27108  -0.26893  -0.26811
 Alpha  occ. eigenvalues --   -0.26563  -0.26020  -0.25869  -0.25719  -0.25605
 Alpha  occ. eigenvalues --   -0.25142  -0.24858  -0.24519  -0.24133  -0.23654
 Alpha  occ. eigenvalues --   -0.23449  -0.22851  -0.22454  -0.22042  -0.21113
 Alpha  occ. eigenvalues --   -0.20735  -0.20373  -0.18995  -0.18158  -0.17736
 Alpha  occ. eigenvalues --   -0.16257
 Alpha virt. eigenvalues --   -0.11971  -0.07215  -0.06134  -0.05271  -0.03152
 Alpha virt. eigenvalues --   -0.02564  -0.02120  -0.01998  -0.01656  -0.00928
 Alpha virt. eigenvalues --    0.00406   0.00952   0.02227   0.02415   0.02777

 Mulliken charges:
               1
     1  Mg   0.689457
     2  C    0.008537
     3  C   -0.078673
     4  C   -0.051664
     5  C   -0.042780
     6  N   -0.213766
     7  C   -0.113450
     8  C    0.074981
     9  C    0.004712
    10  C    0.041618
    11  C    0.103601
    12  C    0.064076
    13  C    0.084533
    14  C    0.099707
    15  O   -0.179161
    16  O   -0.251916
    17  N   -0.280832
    18  C    0.123947
    19  C   -0.121281
    20  C    0.050737
    21  C    0.129506
    22  C    0.181058
    23  C   -0.061886
    24  O   -0.182473
    25  C    0.096794
    26  N   -0.257670
    27  C    0.047943
    28  C   -0.046755
    29  C    0.062849
    30  C    0.014512
    31  C    0.131433
    32  C    0.137848
    33  C    0.077225
    34  N   -0.165785
    35  C    0.044669
    36  C   -0.161867
    37  C    0.102630
    38  C    0.053752
    39  C    0.195528
    40  C   -0.062734
    41  O   -0.200405
    42  C    0.108290
    43  C    0.104900
    44  O   -0.145126
    45  O   -0.309749
    46  C    0.203582
    47  C    0.287733
    48  C   -0.075539
    49  C   -0.150292
    50  C    0.161382
    51  C    0.124133
    52  C    0.058104
    53  C    0.085423
    54  C   -0.073362
    55  C    0.117810
    56  C    0.112523
    57  C    0.077427
    58  C    0.104416
    59  C   -0.081328
    60  C    0.102705
    61  C    0.079736
    62  C    0.071950
    63  C    0.125929
    64  C   -0.100989
    65  C    0.097876
    66  C    0.107800
    67  H   -0.064515
    68  H   -0.072313
    69  H   -0.057128
    70  H   -0.013452
    71  H   -0.011447
    72  H   -0.001036
    73  H   -0.007829
    74  H    0.000643
    75  H    0.001223
    76  H   -0.010396
    77  H   -0.013494
    78  H   -0.007155
    79  H   -0.008121
    80  H   -0.009584
    81  H    0.010408
    82  H    0.021693
    83  H    0.003506
    84  H   -0.006121
    85  H   -0.018332
    86  H   -0.030577
    87  H   -0.025328
    88  H   -0.000675
    89  H   -0.002910
    90  H   -0.029591
    91  H   -0.029275
    92  H    0.000906
    93  H   -0.030183
    94  H   -0.016460
    95  H   -0.007066
    96  H   -0.010373
    97  H    0.006163
    98  H   -0.000406
    99  H    0.019883
   100  H    0.016120
   101  H    0.024977
   102  H   -0.004959
   103  H   -0.003611
   104  H   -0.040148
   105  H   -0.011465
   106  H   -0.006810
   107  H    0.010573
   108  H   -0.035945
   109  H   -0.017951
   110  H   -0.025020
   111  H   -0.027180
   112  H   -0.028067
   113  H   -0.031530
   114  H   -0.029656
   115  H   -0.023641
   116  H   -0.013448
   117  H   -0.012707
   118  H   -0.050754
   119  H   -0.037832
   120  H   -0.031789
   121  H   -0.020995
   122  H   -0.019622
   123  H   -0.041735
   124  H   -0.030567
   125  H   -0.023008
   126  H   -0.018130
   127  H   -0.022725
   128  H   -0.030117
   129  H   -0.034999
   130  H   -0.052316
   131  H   -0.028326
   132  H   -0.038084
   133  H   -0.029360
   134  H   -0.036749
   135  H   -0.018040
   136  H   -0.004093
   137  H   -0.015910
   138  H   -0.026428
   139  H   -0.021408
   140  H   -0.031087
 Sum of Mulliken charges =  -0.00000

 Dipole moment (field-independent basis, Debye):
    X=              2.8587    Y=              5.5579    Z=             -1.0553  Tot=              6.3385
 Quadrupole moment (field-independent basis, Debye-Ang):
   XX=           -404.4193   YY=           -433.4704   ZZ=           -408.2313
   XY=            -34.8937   XZ=            -14.8758   YZ=            -36.1141

 Normal termination of Gaussian 16 at Wed Apr 27 21:45:19 2022.
