 Gaussian 16, Revision A.03,
 Gaussian 16:  ES64L-G16RevA.03 25-Dec-2016

 -----------------------------------
 #p cam-b3lyp/Def2SVP td=(nstates=5)
 -----------------------------------

 --------------------------------------------------------
 step_1301_chromophore_26 TDDFT with cam-b3lyp functional
 --------------------------------------------------------
 Symbolic Z-matrix:
 Charge =  0 Multiplicity = 1

                         Standard orientation:
 ---------------------------------------------------------------------
 Center     Atomic      Atomic             Coordinates (Angstroms)
 Number     Number       Type             X           Y           Z
 ---------------------------------------------------------------------
      1         12           0       -3.827289    1.246088    0.340025
      2          6           0       -4.977609   -1.982754   -0.269517
      3          6           0       -2.759430    0.149942    3.419046
      4          6           0       -2.705306    4.313095    0.896312
      5          6           0       -4.522930    2.005515   -3.030824
      6          7           0       -3.820133   -0.713561    1.373692
      7          6           0       -4.280135   -1.913747    0.890162
      8          6           0       -4.010802   -3.075905    1.813848
      9          6           0       -3.476729   -2.297697    3.121874
     10          6           0       -3.392209   -0.861457    2.662955
     11          6           0       -4.384861   -2.432342    4.437012
     12          6           0       -2.924546   -4.089523    1.359153
     13          6           0       -1.898831   -3.753801    0.243646
     14          6           0       -0.509339   -4.565663    0.252764
     15          8           0       -0.452705   -5.761334    0.415630
     16          8           0        0.533509   -3.713945    0.091259
     17          7           0       -2.867204    2.123693    1.957218
     18          6           0       -2.524163    1.498346    3.093861
     19          6           0       -1.858913    2.451767    3.944077
     20          6           0       -1.857985    3.647020    3.236151
     21          6           0       -2.518529    3.444650    1.968678
     22          6           0       -1.373311    2.064263    5.280993
     23          6           0       -1.351682    4.985032    3.754341
     24          8           0       -1.299182    5.173162    4.980091
     25          6           0       -0.940052    6.191573    2.757900
     26          7           0       -3.640297    2.874910   -0.849813
     27          6           0       -3.338783    4.059898   -0.295630
     28          6           0       -3.280606    5.182507   -1.443992
     29          6           0       -3.799170    4.359985   -2.686974
     30          6           0       -4.014425    3.003844   -2.164851
     31          6           0       -4.129857    6.387262   -0.994121
     32          6           0       -2.844508    4.435222   -3.880890
     33          6           0       -3.530702    4.861417   -5.149477
     34          7           0       -4.669880    0.246336   -1.376683
     35          6           0       -5.012852    0.707631   -2.613285
     36          6           0       -5.757323   -0.315929   -3.339930
     37          6           0       -5.744369   -1.372978   -2.407759
     38          6           0       -5.064396   -0.965302   -1.298139
     39          6           0       -6.542585   -0.245018   -4.582664
     40          6           0       -6.245857   -2.726526   -2.187213
     41          8           0       -7.041428   -3.432928   -2.907726
     42          6           0       -5.722064   -3.240914   -0.792781
     43          6           0       -6.910263   -3.759960   -0.006335
     44          8           0       -7.075733   -4.897467    0.366987
     45          8           0       -7.820181   -2.712190    0.230395
     46          6           0       -9.015574   -3.096333    1.078992
     47          6           0        1.883342   -4.395739    0.166607
     48          6           0        3.015350   -3.403017   -0.117928
     49          6           0        3.413704   -2.978301   -1.335746
     50          6           0        2.700731   -3.254318   -2.651055
     51          6           0        4.704634   -2.125859   -1.430672
     52          6           0        4.370785   -0.689208   -1.238075
     53          6           0        5.406793    0.204495   -1.988736
     54          6           0        5.819814    1.510108   -1.226129
     55          6           0        5.390880    2.754335   -2.063966
     56          6           0        7.343202    1.518732   -0.796854
     57          6           0        7.593809    1.152746    0.665301
     58          6           0        8.143691   -0.353612    0.775644
     59          6           0        9.564320   -0.338879    1.348195
     60          6           0        9.695907   -1.256744    2.534897
     61          6           0       10.673226   -0.735560    0.318437
     62          6           0       12.018703    0.048020    0.608178
     63          6           0       13.223924   -0.745528    0.215010
     64          6           0       14.084223   -0.036053   -0.815608
     65          6           0       13.416069    0.323390   -2.206276
     66          6           0       15.324406   -0.852336   -1.102090
     67          1           0       -2.316752   -0.175741    4.362790
     68          1           0       -2.539404    5.372300    1.101707
     69          1           0       -4.890263    2.394019   -3.983219
     70          1           0       -4.928782   -3.616128    2.045103
     71          1           0       -2.461372   -2.660625    3.280171
     72          1           0       -4.599437   -1.533716    5.014675
     73          1           0       -3.799619   -3.041162    5.126733
     74          1           0       -5.342371   -2.930566    4.284501
     75          1           0       -3.384175   -4.959787    0.892736
     76          1           0       -2.338594   -4.419341    2.217936
     77          1           0       -1.721635   -2.680128    0.190787
     78          1           0       -2.471371   -3.889064   -0.674363
     79          1           0       -0.627538    2.829174    5.495516
     80          1           0       -0.824265    1.123764    5.318018
     81          1           0       -2.103588    2.078031    6.090729
     82          1           0       -1.806537    6.806769    2.516861
     83          1           0       -0.483882    5.913679    1.807043
     84          1           0       -0.269398    6.859939    3.298873
     85          1           0       -2.235235    5.489710   -1.458896
     86          1           0       -4.744398    4.783673   -3.028055
     87          1           0       -4.439215    6.887654   -1.911940
     88          1           0       -3.609524    7.193159   -0.477536
     89          1           0       -5.035437    5.995812   -0.531759
     90          1           0       -2.344372    3.466815   -3.894064
     91          1           0       -1.985409    5.076809   -3.682778
     92          1           0       -3.830853    5.897716   -5.306263
     93          1           0       -4.496644    4.373041   -5.276279
     94          1           0       -3.067189    4.381194   -6.011237
     95          1           0       -5.966514   -0.883117   -5.253166
     96          1           0       -6.676493    0.720382   -5.068840
     97          1           0       -7.454849   -0.841328   -4.551596
     98          1           0       -5.062549   -4.081956   -1.007506
     99          1           0       -8.839709   -2.645486    2.055399
    100          1           0       -9.163670   -4.161581    1.255289
    101          1           0       -9.963078   -2.903755    0.575623
    102          1           0        1.957395   -5.168401   -0.599416
    103          1           0        2.043960   -5.005481    1.055632
    104          1           0        3.653790   -3.139416    0.724763
    105          1           0        1.961016   -4.048931   -2.562773
    106          1           0        3.428916   -3.641093   -3.364405
    107          1           0        2.243495   -2.336589   -3.021110
    108          1           0        5.165184   -2.253903   -2.410580
    109          1           0        5.450343   -2.473985   -0.717005
    110          1           0        4.276601   -0.528835   -0.164161
    111          1           0        3.438830   -0.357026   -1.696195
    112          1           0        5.006082    0.356782   -2.990495
    113          1           0        6.268357   -0.455943   -2.086379
    114          1           0        5.228430    1.491786   -0.309729
    115          1           0        6.288535    3.356518   -2.202394
    116          1           0        4.702750    3.332995   -1.448950
    117          1           0        4.968760    2.506559   -3.038945
    118          1           0        7.831773    2.468608   -1.017765
    119          1           0        7.924394    0.934316   -1.510319
    120          1           0        6.654484    1.117036    1.217868
    121          1           0        8.237313    1.852486    1.197992
    122          1           0        8.224320   -0.913114   -0.157129
    123          1           0        7.458291   -0.866205    1.449983
    124          1           0        9.858177    0.640650    1.726670
    125          1           0        8.755614   -1.160385    3.079107
    126          1           0       10.566368   -1.003495    3.139933
    127          1           0        9.796282   -2.312927    2.285719
    128          1           0       10.397897   -0.582763   -0.724509
    129          1           0       10.851796   -1.801861    0.459483
    130          1           0       12.053048    0.105001    1.695822
    131          1           0       12.061081    1.086866    0.281409
    132          1           0       12.804143   -1.609654   -0.299620
    133          1           0       13.741120   -1.061219    1.120397
    134          1           0       14.449818    0.888023   -0.367272
    135          1           0       12.327667    0.355019   -2.148538
    136          1           0       13.777721   -0.364159   -2.970481
    137          1           0       13.683657    1.350205   -2.456712
    138          1           0       15.236027   -1.894866   -0.793276
    139          1           0       16.214178   -0.448621   -0.618845
    140          1           0       15.591399   -0.947985   -2.154157
 ---------------------------------------------------------------------

 SCF Done:  E(RCAM-B3LYP) =  -3007.16777958     A.U. after   18 cycles

 Excitation energies and oscillator strengths:

 Excited State   1:      Singlet-A      1.7505 eV  708.28 nm  f=0.3825  <S**2>=0.000
     245 -> 248       -0.15913
     246 -> 247        0.68985
 This state for optimization and/or second-order correction.
 Total Energy, E(TD-HF/TD-DFT) =  -3007.10345037
 Copying the excited state density for this state as the 1-particle RhoCI density.

 Excited State   2:      Singlet-A      2.2828 eV  543.13 nm  f=0.1170  <S**2>=0.000
     245 -> 247        0.64098
     246 -> 248        0.28110

 Excited State   3:      Singlet-A      3.3419 eV  371.00 nm  f=0.0050  <S**2>=0.000
     241 -> 247       -0.38564
     243 -> 247       -0.11643
     244 -> 247        0.55611

 Excited State   4:      Singlet-A      3.3817 eV  366.63 nm  f=0.0025  <S**2>=0.000
     241 -> 247       -0.10876
     243 -> 247        0.54404
     243 -> 249       -0.27876
     243 -> 250       -0.27970

 Excited State   5:      Singlet-A      3.4282 eV  361.66 nm  f=0.0018  <S**2>=0.000
     241 -> 247        0.50953
     244 -> 247        0.39734
     246 -> 248       -0.17179

 The electronic state is 1-A.
 Alpha  occ. eigenvalues --  -46.88616 -19.25475 -19.24362 -19.20059 -19.19963
 Alpha  occ. eigenvalues --  -19.19864 -19.17885 -14.42639 -14.42510 -14.39739
 Alpha  occ. eigenvalues --  -14.38720 -10.39582 -10.39441 -10.36587 -10.34651
 Alpha  occ. eigenvalues --  -10.32373 -10.31915 -10.31390 -10.31381 -10.31020
 Alpha  occ. eigenvalues --  -10.30749 -10.30422 -10.30260 -10.29371 -10.28891
 Alpha  occ. eigenvalues --  -10.28738 -10.28604 -10.28462 -10.28368 -10.27871
 Alpha  occ. eigenvalues --  -10.27841 -10.27839 -10.27598 -10.27554 -10.27517
 Alpha  occ. eigenvalues --  -10.27409 -10.27376 -10.27375 -10.27191 -10.27123
 Alpha  occ. eigenvalues --  -10.26875 -10.26843 -10.26680 -10.26531 -10.26232
 Alpha  occ. eigenvalues --  -10.26075 -10.26026 -10.26006 -10.25911 -10.25864
 Alpha  occ. eigenvalues --  -10.25615 -10.25445 -10.25389 -10.25122 -10.24970
 Alpha  occ. eigenvalues --  -10.24962 -10.24939 -10.24913 -10.24885 -10.24764
 Alpha  occ. eigenvalues --  -10.24619 -10.24414 -10.24162 -10.24124 -10.24120
 Alpha  occ. eigenvalues --  -10.23711  -3.17234  -1.92151  -1.91681  -1.91542
 Alpha  occ. eigenvalues --   -1.16241  -1.14852  -1.09767  -1.08066  -1.06925
 Alpha  occ. eigenvalues --   -1.06208  -1.05197  -1.04850  -1.04153  -1.03518
 Alpha  occ. eigenvalues --   -0.92182  -0.90824  -0.90431  -0.90147  -0.89227
 Alpha  occ. eigenvalues --   -0.88904  -0.88684  -0.87816  -0.87643  -0.87346
 Alpha  occ. eigenvalues --   -0.86691  -0.85221  -0.84761  -0.83955  -0.83318
 Alpha  occ. eigenvalues --   -0.82697  -0.82130  -0.81104  -0.80664  -0.80465
 Alpha  occ. eigenvalues --   -0.80130  -0.78385  -0.78019  -0.77756  -0.76392
 Alpha  occ. eigenvalues --   -0.75892  -0.75620  -0.75259  -0.74552  -0.74260
 Alpha  occ. eigenvalues --   -0.73554  -0.72880  -0.72036  -0.70314  -0.70091
 Alpha  occ. eigenvalues --   -0.68583  -0.68279  -0.67824  -0.66832  -0.66468
 Alpha  occ. eigenvalues --   -0.65970  -0.65550  -0.65148  -0.64851  -0.64190
 Alpha  occ. eigenvalues --   -0.63955  -0.63517  -0.62494  -0.62406  -0.60476
 Alpha  occ. eigenvalues --   -0.59900  -0.59564  -0.59376  -0.58732  -0.58279
 Alpha  occ. eigenvalues --   -0.57330  -0.57095  -0.56440  -0.56236  -0.55451
 Alpha  occ. eigenvalues --   -0.55196  -0.54987  -0.54565  -0.54518  -0.54016
 Alpha  occ. eigenvalues --   -0.53922  -0.53458  -0.53143  -0.52861  -0.52813
 Alpha  occ. eigenvalues --   -0.52573  -0.52456  -0.52377  -0.52137  -0.51669
 Alpha  occ. eigenvalues --   -0.51530  -0.51264  -0.51065  -0.50757  -0.50645
 Alpha  occ. eigenvalues --   -0.50247  -0.50001  -0.49961  -0.49895  -0.49814
 Alpha  occ. eigenvalues --   -0.49516  -0.49454  -0.49389  -0.49032  -0.48680
 Alpha  occ. eigenvalues --   -0.48497  -0.48436  -0.48210  -0.48174  -0.47712
 Alpha  occ. eigenvalues --   -0.47460  -0.47288  -0.46879  -0.46704  -0.46540
 Alpha  occ. eigenvalues --   -0.46499  -0.46050  -0.45998  -0.45935  -0.45826
 Alpha  occ. eigenvalues --   -0.45791  -0.45727  -0.45458  -0.45284  -0.45191
 Alpha  occ. eigenvalues --   -0.45103  -0.44936  -0.44740  -0.44497  -0.44272
 Alpha  occ. eigenvalues --   -0.44091  -0.43968  -0.43739  -0.43626  -0.43530
 Alpha  occ. eigenvalues --   -0.43307  -0.42709  -0.42566  -0.42432  -0.42335
 Alpha  occ. eigenvalues --   -0.42043  -0.41851  -0.41748  -0.41525  -0.41448
 Alpha  occ. eigenvalues --   -0.41140  -0.40899  -0.40668  -0.40510  -0.40187
 Alpha  occ. eigenvalues --   -0.39870  -0.39843  -0.39699  -0.38964  -0.38766
 Alpha  occ. eigenvalues --   -0.38278  -0.38274  -0.37933  -0.37699  -0.37506
 Alpha  occ. eigenvalues --   -0.37332  -0.37314  -0.37031  -0.36660  -0.36556
 Alpha  occ. eigenvalues --   -0.36335  -0.35660  -0.35025  -0.34634  -0.34331
 Alpha  occ. eigenvalues --   -0.34227  -0.34052  -0.33390  -0.32131  -0.31576
 Alpha  occ. eigenvalues --   -0.30648  -0.30590  -0.29991  -0.29233  -0.24705
 Alpha  occ. eigenvalues --   -0.21621
 Alpha virt. eigenvalues --   -0.09137  -0.01888   0.00352   0.01797   0.03068
 Alpha virt. eigenvalues --    0.04314   0.04525   0.05551   0.05822   0.06126
 Alpha virt. eigenvalues --    0.07052   0.07899   0.08337   0.08643   0.09037

 Mulliken charges:
               1
     1  Mg   0.825871
     2  C   -0.011429
     3  C   -0.091722
     4  C   -0.069148
     5  C   -0.037012
     6  N   -0.283490
     7  C   -0.079133
     8  C    0.026664
     9  C   -0.051947
    10  C    0.064181
    11  C    0.046271
    12  C    0.016811
    13  C    0.025161
    14  C    0.177045
    15  O   -0.221064
    16  O   -0.315871
    17  N   -0.374827
    18  C    0.139280
    19  C   -0.124679
    20  C   -0.015761
    21  C    0.159719
    22  C    0.121748
    23  C    0.011286
    24  O   -0.218543
    25  C    0.018113
    26  N   -0.333194
    27  C    0.072917
    28  C   -0.098649
    29  C   -0.002627
    30  C    0.032686
    31  C    0.071400
    32  C    0.075567
    33  C    0.011220
    34  N   -0.255520
    35  C    0.041091
    36  C   -0.154724
    37  C    0.017583
    38  C    0.090152
    39  C    0.132380
    40  C    0.040649
    41  O   -0.242484
    42  C    0.029532
    43  C    0.194466
    44  O   -0.186550
    45  O   -0.372322
    46  C    0.167853
    47  C    0.253841
    48  C   -0.099140
    49  C   -0.171170
    50  C    0.102580
    51  C    0.060582
    52  C    0.011288
    53  C    0.035125
    54  C   -0.130601
    55  C    0.062175
    56  C    0.058839
    57  C    0.021366
    58  C    0.052766
    59  C   -0.137942
    60  C    0.047433
    61  C    0.030914
    62  C    0.012023
    63  C    0.070867
    64  C   -0.159863
    65  C    0.040321
    66  C    0.045786
    67  H   -0.026806
    68  H   -0.038941
    69  H   -0.025964
    70  H    0.021366
    71  H    0.023466
    72  H    0.024394
    73  H    0.016626
    74  H    0.025664
    75  H    0.030454
    76  H    0.017564
    77  H    0.019284
    78  H    0.022076
    79  H    0.022324
    80  H    0.018744
    81  H    0.041166
    82  H    0.048746
    83  H    0.034085
    84  H    0.029994
    85  H    0.015751
    86  H    0.005959
    87  H    0.001661
    88  H    0.022585
    89  H    0.022744
    90  H    0.004384
    91  H   -0.000372
    92  H    0.024642
    93  H   -0.008454
    94  H    0.010370
    95  H    0.018408
    96  H    0.013454
    97  H    0.034541
    98  H    0.038868
    99  H    0.039918
   100  H    0.041720
   101  H    0.045978
   102  H    0.023765
   103  H    0.026985
   104  H   -0.007971
   105  H    0.013433
   106  H    0.016998
   107  H    0.034090
   108  H   -0.004871
   109  H    0.011177
   110  H    0.000547
   111  H    0.001878
   112  H    0.000037
   113  H   -0.005883
   114  H    0.001147
   115  H   -0.000123
   116  H    0.009798
   117  H    0.010689
   118  H   -0.019463
   119  H   -0.010684
   120  H   -0.003823
   121  H    0.007707
   122  H    0.004853
   123  H   -0.012572
   124  H    0.000157
   125  H    0.001259
   126  H    0.006004
   127  H    0.001187
   128  H   -0.004792
   129  H   -0.006381
   130  H   -0.022530
   131  H    0.000592
   132  H   -0.009828
   133  H    0.001006
   134  H   -0.005118
   135  H    0.003425
   136  H    0.018823
   137  H    0.008994
   138  H   -0.001233
   139  H    0.003654
   140  H   -0.005474
 Sum of Mulliken charges =  -0.00000

 Dipole moment (field-independent basis, Debye):
    X=              3.4993    Y=              6.3776    Z=             -0.0588  Tot=              7.2748
 Quadrupole moment (field-independent basis, Debye-Ang):
   XX=           -407.9054   YY=           -429.6628   ZZ=           -406.0949
   XY=            -37.2744   XZ=            -18.4001   YZ=            -36.0762

 Normal termination of Gaussian 16 at Wed Apr 27 20:45:33 2022.
