 Gaussian 16, Revision A.03,
 Gaussian 16:  ES64L-G16RevA.03 25-Dec-2016

 ---------------------------------
 #p PBE1PBE/Def2SVP td=(nstates=5)
 ---------------------------------

 ------------------------------------------------------
 step_1301_chromophore_26 TDDFT with PBE1PBE functional
 ------------------------------------------------------
 Symbolic Z-matrix:
 Charge =  0 Multiplicity = 1

                         Standard orientation:
 ---------------------------------------------------------------------
 Center     Atomic      Atomic             Coordinates (Angstroms)
 Number     Number       Type             X           Y           Z
 ---------------------------------------------------------------------
      1         12           0       -3.827289    1.246088    0.340025
      2          6           0       -4.977609   -1.982754   -0.269517
      3          6           0       -2.759430    0.149942    3.419046
      4          6           0       -2.705306    4.313095    0.896312
      5          6           0       -4.522930    2.005515   -3.030824
      6          7           0       -3.820133   -0.713561    1.373692
      7          6           0       -4.280135   -1.913747    0.890162
      8          6           0       -4.010802   -3.075905    1.813848
      9          6           0       -3.476729   -2.297697    3.121874
     10          6           0       -3.392209   -0.861457    2.662955
     11          6           0       -4.384861   -2.432342    4.437012
     12          6           0       -2.924546   -4.089523    1.359153
     13          6           0       -1.898831   -3.753801    0.243646
     14          6           0       -0.509339   -4.565663    0.252764
     15          8           0       -0.452705   -5.761334    0.415630
     16          8           0        0.533509   -3.713945    0.091259
     17          7           0       -2.867204    2.123693    1.957218
     18          6           0       -2.524163    1.498346    3.093861
     19          6           0       -1.858913    2.451767    3.944077
     20          6           0       -1.857985    3.647020    3.236151
     21          6           0       -2.518529    3.444650    1.968678
     22          6           0       -1.373311    2.064263    5.280993
     23          6           0       -1.351682    4.985032    3.754341
     24          8           0       -1.299182    5.173162    4.980091
     25          6           0       -0.940052    6.191573    2.757900
     26          7           0       -3.640297    2.874910   -0.849813
     27          6           0       -3.338783    4.059898   -0.295630
     28          6           0       -3.280606    5.182507   -1.443992
     29          6           0       -3.799170    4.359985   -2.686974
     30          6           0       -4.014425    3.003844   -2.164851
     31          6           0       -4.129857    6.387262   -0.994121
     32          6           0       -2.844508    4.435222   -3.880890
     33          6           0       -3.530702    4.861417   -5.149477
     34          7           0       -4.669880    0.246336   -1.376683
     35          6           0       -5.012852    0.707631   -2.613285
     36          6           0       -5.757323   -0.315929   -3.339930
     37          6           0       -5.744369   -1.372978   -2.407759
     38          6           0       -5.064396   -0.965302   -1.298139
     39          6           0       -6.542585   -0.245018   -4.582664
     40          6           0       -6.245857   -2.726526   -2.187213
     41          8           0       -7.041428   -3.432928   -2.907726
     42          6           0       -5.722064   -3.240914   -0.792781
     43          6           0       -6.910263   -3.759960   -0.006335
     44          8           0       -7.075733   -4.897467    0.366987
     45          8           0       -7.820181   -2.712190    0.230395
     46          6           0       -9.015574   -3.096333    1.078992
     47          6           0        1.883342   -4.395739    0.166607
     48          6           0        3.015350   -3.403017   -0.117928
     49          6           0        3.413704   -2.978301   -1.335746
     50          6           0        2.700731   -3.254318   -2.651055
     51          6           0        4.704634   -2.125859   -1.430672
     52          6           0        4.370785   -0.689208   -1.238075
     53          6           0        5.406793    0.204495   -1.988736
     54          6           0        5.819814    1.510108   -1.226129
     55          6           0        5.390880    2.754335   -2.063966
     56          6           0        7.343202    1.518732   -0.796854
     57          6           0        7.593809    1.152746    0.665301
     58          6           0        8.143691   -0.353612    0.775644
     59          6           0        9.564320   -0.338879    1.348195
     60          6           0        9.695907   -1.256744    2.534897
     61          6           0       10.673226   -0.735560    0.318437
     62          6           0       12.018703    0.048020    0.608178
     63          6           0       13.223924   -0.745528    0.215010
     64          6           0       14.084223   -0.036053   -0.815608
     65          6           0       13.416069    0.323390   -2.206276
     66          6           0       15.324406   -0.852336   -1.102090
     67          1           0       -2.316752   -0.175741    4.362790
     68          1           0       -2.539404    5.372300    1.101707
     69          1           0       -4.890263    2.394019   -3.983219
     70          1           0       -4.928782   -3.616128    2.045103
     71          1           0       -2.461372   -2.660625    3.280171
     72          1           0       -4.599437   -1.533716    5.014675
     73          1           0       -3.799619   -3.041162    5.126733
     74          1           0       -5.342371   -2.930566    4.284501
     75          1           0       -3.384175   -4.959787    0.892736
     76          1           0       -2.338594   -4.419341    2.217936
     77          1           0       -1.721635   -2.680128    0.190787
     78          1           0       -2.471371   -3.889064   -0.674363
     79          1           0       -0.627538    2.829174    5.495516
     80          1           0       -0.824265    1.123764    5.318018
     81          1           0       -2.103588    2.078031    6.090729
     82          1           0       -1.806537    6.806769    2.516861
     83          1           0       -0.483882    5.913679    1.807043
     84          1           0       -0.269398    6.859939    3.298873
     85          1           0       -2.235235    5.489710   -1.458896
     86          1           0       -4.744398    4.783673   -3.028055
     87          1           0       -4.439215    6.887654   -1.911940
     88          1           0       -3.609524    7.193159   -0.477536
     89          1           0       -5.035437    5.995812   -0.531759
     90          1           0       -2.344372    3.466815   -3.894064
     91          1           0       -1.985409    5.076809   -3.682778
     92          1           0       -3.830853    5.897716   -5.306263
     93          1           0       -4.496644    4.373041   -5.276279
     94          1           0       -3.067189    4.381194   -6.011237
     95          1           0       -5.966514   -0.883117   -5.253166
     96          1           0       -6.676493    0.720382   -5.068840
     97          1           0       -7.454849   -0.841328   -4.551596
     98          1           0       -5.062549   -4.081956   -1.007506
     99          1           0       -8.839709   -2.645486    2.055399
    100          1           0       -9.163670   -4.161581    1.255289
    101          1           0       -9.963078   -2.903755    0.575623
    102          1           0        1.957395   -5.168401   -0.599416
    103          1           0        2.043960   -5.005481    1.055632
    104          1           0        3.653790   -3.139416    0.724763
    105          1           0        1.961016   -4.048931   -2.562773
    106          1           0        3.428916   -3.641093   -3.364405
    107          1           0        2.243495   -2.336589   -3.021110
    108          1           0        5.165184   -2.253903   -2.410580
    109          1           0        5.450343   -2.473985   -0.717005
    110          1           0        4.276601   -0.528835   -0.164161
    111          1           0        3.438830   -0.357026   -1.696195
    112          1           0        5.006082    0.356782   -2.990495
    113          1           0        6.268357   -0.455943   -2.086379
    114          1           0        5.228430    1.491786   -0.309729
    115          1           0        6.288535    3.356518   -2.202394
    116          1           0        4.702750    3.332995   -1.448950
    117          1           0        4.968760    2.506559   -3.038945
    118          1           0        7.831773    2.468608   -1.017765
    119          1           0        7.924394    0.934316   -1.510319
    120          1           0        6.654484    1.117036    1.217868
    121          1           0        8.237313    1.852486    1.197992
    122          1           0        8.224320   -0.913114   -0.157129
    123          1           0        7.458291   -0.866205    1.449983
    124          1           0        9.858177    0.640650    1.726670
    125          1           0        8.755614   -1.160385    3.079107
    126          1           0       10.566368   -1.003495    3.139933
    127          1           0        9.796282   -2.312927    2.285719
    128          1           0       10.397897   -0.582763   -0.724509
    129          1           0       10.851796   -1.801861    0.459483
    130          1           0       12.053048    0.105001    1.695822
    131          1           0       12.061081    1.086866    0.281409
    132          1           0       12.804143   -1.609654   -0.299620
    133          1           0       13.741120   -1.061219    1.120397
    134          1           0       14.449818    0.888023   -0.367272
    135          1           0       12.327667    0.355019   -2.148538
    136          1           0       13.777721   -0.364159   -2.970481
    137          1           0       13.683657    1.350205   -2.456712
    138          1           0       15.236027   -1.894866   -0.793276
    139          1           0       16.214178   -0.448621   -0.618845
    140          1           0       15.591399   -0.947985   -2.154157
 ---------------------------------------------------------------------

 SCF Done:  E(RPBE1PBE) =  -3005.35525358     A.U. after   15 cycles

 Excitation energies and oscillator strengths:

 Excited State   1:      Singlet-A      1.8777 eV  660.31 nm  f=0.3689  <S**2>=0.000
     245 -> 248        0.15614
     246 -> 247        0.69593
     246 <- 247       -0.11134
 This state for optimization and/or second-order correction.
 Total Energy, E(TD-HF/TD-DFT) =  -3005.28625043
 Copying the excited state density for this state as the 1-particle RhoCI density.

 Excited State   2:      Singlet-A      2.2844 eV  542.75 nm  f=0.1104  <S**2>=0.000
     245 -> 247        0.65127
     246 -> 248       -0.25662

 Excited State   3:      Singlet-A      2.8037 eV  442.22 nm  f=0.0002  <S**2>=0.000
     244 -> 247        0.67059
     244 -> 249        0.15201
     244 -> 250        0.11564

 Excited State   4:      Singlet-A      2.9628 eV  418.47 nm  f=0.0024  <S**2>=0.000
     242 -> 247        0.29578
     243 -> 247        0.62853

 Excited State   5:      Singlet-A      3.0197 eV  410.58 nm  f=0.0057  <S**2>=0.000
     240 -> 247        0.10365
     242 -> 247        0.61106
     243 -> 247       -0.29235

 The electronic state is 1-A.
 Alpha  occ. eigenvalues --  -46.91964 -19.26159 -19.25123 -19.20399 -19.20152
 Alpha  occ. eigenvalues --  -19.19941 -19.18447 -14.42096 -14.42006 -14.39198
 Alpha  occ. eigenvalues --  -14.38518 -10.36639 -10.36574 -10.33557 -10.32096
 Alpha  occ. eigenvalues --  -10.29764 -10.29323 -10.28867 -10.28739 -10.28692
 Alpha  occ. eigenvalues --  -10.28295 -10.28265 -10.27555 -10.27497 -10.26627
 Alpha  occ. eigenvalues --  -10.26502 -10.26431 -10.26229 -10.25798 -10.25752
 Alpha  occ. eigenvalues --  -10.25683 -10.25589 -10.25517 -10.25260 -10.25188
 Alpha  occ. eigenvalues --  -10.25007 -10.24892 -10.24701 -10.24621 -10.24512
 Alpha  occ. eigenvalues --  -10.24499 -10.24286 -10.24237 -10.24091 -10.23793
 Alpha  occ. eigenvalues --  -10.23605 -10.23570 -10.23419 -10.23398 -10.23316
 Alpha  occ. eigenvalues --  -10.23199 -10.23090 -10.22942 -10.22650 -10.22619
 Alpha  occ. eigenvalues --  -10.22552 -10.22533 -10.22492 -10.22459 -10.22245
 Alpha  occ. eigenvalues --  -10.22150 -10.22002 -10.21946 -10.21632 -10.21498
 Alpha  occ. eigenvalues --  -10.21082  -3.14163  -1.87022  -1.86530  -1.86393
 Alpha  occ. eigenvalues --   -1.11058  -1.09695  -1.04259  -1.02956  -1.01864
 Alpha  occ. eigenvalues --   -1.01173  -1.00052  -0.99428  -0.98711  -0.98077
 Alpha  occ. eigenvalues --   -0.86659  -0.84937  -0.84747  -0.84226  -0.83437
 Alpha  occ. eigenvalues --   -0.83121  -0.82786  -0.82161  -0.81759  -0.81499
 Alpha  occ. eigenvalues --   -0.81108  -0.79409  -0.78937  -0.78312  -0.77550
 Alpha  occ. eigenvalues --   -0.76850  -0.76403  -0.75244  -0.74856  -0.74710
 Alpha  occ. eigenvalues --   -0.74308  -0.72746  -0.72255  -0.71930  -0.70731
 Alpha  occ. eigenvalues --   -0.70097  -0.69906  -0.69320  -0.68685  -0.68408
 Alpha  occ. eigenvalues --   -0.68033  -0.67184  -0.66422  -0.64634  -0.64449
 Alpha  occ. eigenvalues --   -0.63076  -0.62520  -0.62157  -0.61025  -0.60909
 Alpha  occ. eigenvalues --   -0.60357  -0.59756  -0.59742  -0.59442  -0.58348
 Alpha  occ. eigenvalues --   -0.58086  -0.58028  -0.57147  -0.56592  -0.54876
 Alpha  occ. eigenvalues --   -0.54579  -0.54025  -0.53935  -0.53363  -0.52852
 Alpha  occ. eigenvalues --   -0.51779  -0.51557  -0.50985  -0.50551  -0.50012
 Alpha  occ. eigenvalues --   -0.49731  -0.49473  -0.49095  -0.48841  -0.48629
 Alpha  occ. eigenvalues --   -0.48551  -0.47971  -0.47840  -0.47372  -0.47273
 Alpha  occ. eigenvalues --   -0.47008  -0.46988  -0.46878  -0.46398  -0.46220
 Alpha  occ. eigenvalues --   -0.46016  -0.45905  -0.45615  -0.45293  -0.45197
 Alpha  occ. eigenvalues --   -0.44770  -0.44754  -0.44542  -0.44435  -0.44329
 Alpha  occ. eigenvalues --   -0.44013  -0.43988  -0.43954  -0.43654  -0.43210
 Alpha  occ. eigenvalues --   -0.43187  -0.43054  -0.42790  -0.42760  -0.42407
 Alpha  occ. eigenvalues --   -0.42010  -0.41907  -0.41555  -0.41369  -0.41268
 Alpha  occ. eigenvalues --   -0.41057  -0.40826  -0.40786  -0.40640  -0.40597
 Alpha  occ. eigenvalues --   -0.40489  -0.40420  -0.40252  -0.39989  -0.39946
 Alpha  occ. eigenvalues --   -0.39807  -0.39658  -0.39424  -0.39213  -0.39071
 Alpha  occ. eigenvalues --   -0.38851  -0.38657  -0.38581  -0.38476  -0.38188
 Alpha  occ. eigenvalues --   -0.38072  -0.37531  -0.37403  -0.37232  -0.36997
 Alpha  occ. eigenvalues --   -0.36898  -0.36683  -0.36571  -0.36330  -0.36176
 Alpha  occ. eigenvalues --   -0.35944  -0.35716  -0.35640  -0.35275  -0.35097
 Alpha  occ. eigenvalues --   -0.34752  -0.34610  -0.34441  -0.33926  -0.33523
 Alpha  occ. eigenvalues --   -0.33173  -0.33053  -0.32727  -0.32501  -0.32461
 Alpha  occ. eigenvalues --   -0.32339  -0.32118  -0.31970  -0.31688  -0.31348
 Alpha  occ. eigenvalues --   -0.31325  -0.30594  -0.29931  -0.29703  -0.29472
 Alpha  occ. eigenvalues --   -0.29079  -0.28998  -0.28982  -0.27513  -0.26568
 Alpha  occ. eigenvalues --   -0.25874  -0.25727  -0.25181  -0.25035  -0.21545
 Alpha  occ. eigenvalues --   -0.19216
 Alpha virt. eigenvalues --   -0.11597  -0.05453  -0.03856  -0.02670  -0.00137
 Alpha virt. eigenvalues --    0.00381   0.00631   0.00846   0.01286   0.01945
 Alpha virt. eigenvalues --    0.03171   0.03796   0.05120   0.05231   0.05648

 Mulliken charges:
               1
     1  Mg   0.976392
     2  C   -0.012967
     3  C   -0.072612
     4  C   -0.059353
     5  C   -0.024944
     6  N   -0.388767
     7  C   -0.004618
     8  C   -0.041745
     9  C   -0.130575
    10  C    0.099966
    11  C   -0.008810
    12  C   -0.028576
    13  C   -0.055222
    14  C    0.243386
    15  O   -0.253562
    16  O   -0.344741
    17  N   -0.497664
    18  C    0.162371
    19  C   -0.157952
    20  C   -0.065891
    21  C    0.184078
    22  C    0.063818
    23  C    0.065356
    24  O   -0.251136
    25  C   -0.061022
    26  N   -0.446212
    27  C    0.110168
    28  C   -0.176399
    29  C   -0.087621
    30  C    0.071216
    31  C    0.013542
    32  C    0.018615
    33  C   -0.063011
    34  N   -0.387982
    35  C    0.066846
    36  C   -0.173553
    37  C   -0.033252
    38  C    0.146168
    39  C    0.076823
    40  C    0.137545
    41  O   -0.282313
    42  C   -0.082973
    43  C    0.283924
    44  O   -0.224196
    45  O   -0.398577
    46  C    0.112807
    47  C    0.207105
    48  C   -0.104369
    49  C   -0.217530
    50  C    0.040932
    51  C   -0.010258
    52  C   -0.043837
    53  C   -0.018199
    54  C   -0.216719
    55  C    0.002690
    56  C    0.007773
    57  C   -0.044116
    58  C   -0.000916
    59  C   -0.224680
    60  C   -0.011298
    61  C   -0.023108
    62  C   -0.051330
    63  C    0.013807
    64  C   -0.254230
    65  C   -0.022291
    66  C   -0.011200
    67  H    0.003796
    68  H   -0.004224
    69  H    0.007753
    70  H    0.061049
    71  H    0.059265
    72  H    0.051090
    73  H    0.043611
    74  H    0.051067
    75  H    0.062159
    76  H    0.050180
    77  H    0.055063
    78  H    0.056533
    79  H    0.050667
    80  H    0.044128
    81  H    0.067086
    82  H    0.073525
    83  H    0.059786
    84  H    0.057377
    85  H    0.051859
    86  H    0.044333
    87  H    0.030543
    88  H    0.049264
    89  H    0.050864
    90  H    0.037673
    91  H    0.033377
    92  H    0.052569
    93  H    0.018646
    94  H    0.039056
    95  H    0.049329
    96  H    0.041363
    97  H    0.063157
    98  H    0.077051
    99  H    0.062445
   100  H    0.062516
   101  H    0.067197
   102  H    0.049991
   103  H    0.053150
   104  H    0.021725
   105  H    0.040842
   106  H    0.044346
   107  H    0.061034
   108  H    0.027755
   109  H    0.043880
   110  H    0.032443
   111  H    0.036005
   112  H    0.031577
   113  H    0.027903
   114  H    0.039745
   115  H    0.027317
   116  H    0.037700
   117  H    0.036902
   118  H    0.012936
   119  H    0.021016
   120  H    0.028656
   121  H    0.038391
   122  H    0.036287
   123  H    0.019443
   124  H    0.038465
   125  H    0.030259
   126  H    0.033378
   127  H    0.028551
   128  H    0.028033
   129  H    0.026025
   130  H    0.013470
   131  H    0.032318
   132  H    0.024831
   133  H    0.032754
   134  H    0.033370
   135  H    0.032368
   136  H    0.045252
   137  H    0.036898
   138  H    0.025887
   139  H    0.031447
   140  H    0.021497
 Sum of Mulliken charges =  -0.00000

 Dipole moment (field-independent basis, Debye):
    X=              3.1942    Y=              6.0938    Z=             -0.6976  Tot=              6.9155
 Quadrupole moment (field-independent basis, Debye-Ang):
   XX=           -402.2547   YY=           -427.0984   ZZ=           -402.1781
   XY=            -36.4205   XZ=            -15.5753   YZ=            -38.0855

 Normal termination of Gaussian 16 at Wed Apr 27 21:04:04 2022.
