 Gaussian 16, Revision A.03,
 Gaussian 16:  ES64L-G16RevA.03 25-Dec-2016

 --------------------------------
 #p wB97XD/Def2SVP td=(nstates=5)
 --------------------------------

 -----------------------------------------------------
 step_1301_chromophore_26 TDDFT with wB97XD functional
 -----------------------------------------------------
 Symbolic Z-matrix:
 Charge =  0 Multiplicity = 1

                         Standard orientation:
 ---------------------------------------------------------------------
 Center     Atomic      Atomic             Coordinates (Angstroms)
 Number     Number       Type             X           Y           Z
 ---------------------------------------------------------------------
      1         12           0       -3.827289    1.246088    0.340025
      2          6           0       -4.977609   -1.982754   -0.269517
      3          6           0       -2.759430    0.149942    3.419046
      4          6           0       -2.705306    4.313095    0.896312
      5          6           0       -4.522930    2.005515   -3.030824
      6          7           0       -3.820133   -0.713561    1.373692
      7          6           0       -4.280135   -1.913747    0.890162
      8          6           0       -4.010802   -3.075905    1.813848
      9          6           0       -3.476729   -2.297697    3.121874
     10          6           0       -3.392209   -0.861457    2.662955
     11          6           0       -4.384861   -2.432342    4.437012
     12          6           0       -2.924546   -4.089523    1.359153
     13          6           0       -1.898831   -3.753801    0.243646
     14          6           0       -0.509339   -4.565663    0.252764
     15          8           0       -0.452705   -5.761334    0.415630
     16          8           0        0.533509   -3.713945    0.091259
     17          7           0       -2.867204    2.123693    1.957218
     18          6           0       -2.524163    1.498346    3.093861
     19          6           0       -1.858913    2.451767    3.944077
     20          6           0       -1.857985    3.647020    3.236151
     21          6           0       -2.518529    3.444650    1.968678
     22          6           0       -1.373311    2.064263    5.280993
     23          6           0       -1.351682    4.985032    3.754341
     24          8           0       -1.299182    5.173162    4.980091
     25          6           0       -0.940052    6.191573    2.757900
     26          7           0       -3.640297    2.874910   -0.849813
     27          6           0       -3.338783    4.059898   -0.295630
     28          6           0       -3.280606    5.182507   -1.443992
     29          6           0       -3.799170    4.359985   -2.686974
     30          6           0       -4.014425    3.003844   -2.164851
     31          6           0       -4.129857    6.387262   -0.994121
     32          6           0       -2.844508    4.435222   -3.880890
     33          6           0       -3.530702    4.861417   -5.149477
     34          7           0       -4.669880    0.246336   -1.376683
     35          6           0       -5.012852    0.707631   -2.613285
     36          6           0       -5.757323   -0.315929   -3.339930
     37          6           0       -5.744369   -1.372978   -2.407759
     38          6           0       -5.064396   -0.965302   -1.298139
     39          6           0       -6.542585   -0.245018   -4.582664
     40          6           0       -6.245857   -2.726526   -2.187213
     41          8           0       -7.041428   -3.432928   -2.907726
     42          6           0       -5.722064   -3.240914   -0.792781
     43          6           0       -6.910263   -3.759960   -0.006335
     44          8           0       -7.075733   -4.897467    0.366987
     45          8           0       -7.820181   -2.712190    0.230395
     46          6           0       -9.015574   -3.096333    1.078992
     47          6           0        1.883342   -4.395739    0.166607
     48          6           0        3.015350   -3.403017   -0.117928
     49          6           0        3.413704   -2.978301   -1.335746
     50          6           0        2.700731   -3.254318   -2.651055
     51          6           0        4.704634   -2.125859   -1.430672
     52          6           0        4.370785   -0.689208   -1.238075
     53          6           0        5.406793    0.204495   -1.988736
     54          6           0        5.819814    1.510108   -1.226129
     55          6           0        5.390880    2.754335   -2.063966
     56          6           0        7.343202    1.518732   -0.796854
     57          6           0        7.593809    1.152746    0.665301
     58          6           0        8.143691   -0.353612    0.775644
     59          6           0        9.564320   -0.338879    1.348195
     60          6           0        9.695907   -1.256744    2.534897
     61          6           0       10.673226   -0.735560    0.318437
     62          6           0       12.018703    0.048020    0.608178
     63          6           0       13.223924   -0.745528    0.215010
     64          6           0       14.084223   -0.036053   -0.815608
     65          6           0       13.416069    0.323390   -2.206276
     66          6           0       15.324406   -0.852336   -1.102090
     67          1           0       -2.316752   -0.175741    4.362790
     68          1           0       -2.539404    5.372300    1.101707
     69          1           0       -4.890263    2.394019   -3.983219
     70          1           0       -4.928782   -3.616128    2.045103
     71          1           0       -2.461372   -2.660625    3.280171
     72          1           0       -4.599437   -1.533716    5.014675
     73          1           0       -3.799619   -3.041162    5.126733
     74          1           0       -5.342371   -2.930566    4.284501
     75          1           0       -3.384175   -4.959787    0.892736
     76          1           0       -2.338594   -4.419341    2.217936
     77          1           0       -1.721635   -2.680128    0.190787
     78          1           0       -2.471371   -3.889064   -0.674363
     79          1           0       -0.627538    2.829174    5.495516
     80          1           0       -0.824265    1.123764    5.318018
     81          1           0       -2.103588    2.078031    6.090729
     82          1           0       -1.806537    6.806769    2.516861
     83          1           0       -0.483882    5.913679    1.807043
     84          1           0       -0.269398    6.859939    3.298873
     85          1           0       -2.235235    5.489710   -1.458896
     86          1           0       -4.744398    4.783673   -3.028055
     87          1           0       -4.439215    6.887654   -1.911940
     88          1           0       -3.609524    7.193159   -0.477536
     89          1           0       -5.035437    5.995812   -0.531759
     90          1           0       -2.344372    3.466815   -3.894064
     91          1           0       -1.985409    5.076809   -3.682778
     92          1           0       -3.830853    5.897716   -5.306263
     93          1           0       -4.496644    4.373041   -5.276279
     94          1           0       -3.067189    4.381194   -6.011237
     95          1           0       -5.966514   -0.883117   -5.253166
     96          1           0       -6.676493    0.720382   -5.068840
     97          1           0       -7.454849   -0.841328   -4.551596
     98          1           0       -5.062549   -4.081956   -1.007506
     99          1           0       -8.839709   -2.645486    2.055399
    100          1           0       -9.163670   -4.161581    1.255289
    101          1           0       -9.963078   -2.903755    0.575623
    102          1           0        1.957395   -5.168401   -0.599416
    103          1           0        2.043960   -5.005481    1.055632
    104          1           0        3.653790   -3.139416    0.724763
    105          1           0        1.961016   -4.048931   -2.562773
    106          1           0        3.428916   -3.641093   -3.364405
    107          1           0        2.243495   -2.336589   -3.021110
    108          1           0        5.165184   -2.253903   -2.410580
    109          1           0        5.450343   -2.473985   -0.717005
    110          1           0        4.276601   -0.528835   -0.164161
    111          1           0        3.438830   -0.357026   -1.696195
    112          1           0        5.006082    0.356782   -2.990495
    113          1           0        6.268357   -0.455943   -2.086379
    114          1           0        5.228430    1.491786   -0.309729
    115          1           0        6.288535    3.356518   -2.202394
    116          1           0        4.702750    3.332995   -1.448950
    117          1           0        4.968760    2.506559   -3.038945
    118          1           0        7.831773    2.468608   -1.017765
    119          1           0        7.924394    0.934316   -1.510319
    120          1           0        6.654484    1.117036    1.217868
    121          1           0        8.237313    1.852486    1.197992
    122          1           0        8.224320   -0.913114   -0.157129
    123          1           0        7.458291   -0.866205    1.449983
    124          1           0        9.858177    0.640650    1.726670
    125          1           0        8.755614   -1.160385    3.079107
    126          1           0       10.566368   -1.003495    3.139933
    127          1           0        9.796282   -2.312927    2.285719
    128          1           0       10.397897   -0.582763   -0.724509
    129          1           0       10.851796   -1.801861    0.459483
    130          1           0       12.053048    0.105001    1.695822
    131          1           0       12.061081    1.086866    0.281409
    132          1           0       12.804143   -1.609654   -0.299620
    133          1           0       13.741120   -1.061219    1.120397
    134          1           0       14.449818    0.888023   -0.367272
    135          1           0       12.327667    0.355019   -2.148538
    136          1           0       13.777721   -0.364159   -2.970481
    137          1           0       13.683657    1.350205   -2.456712
    138          1           0       15.236027   -1.894866   -0.793276
    139          1           0       16.214178   -0.448621   -0.618845
    140          1           0       15.591399   -0.947985   -2.154157
 ---------------------------------------------------------------------

 SCF Done:  E(RwB97XD) =  -3007.86493354     A.U. after   19 cycles

 Excitation energies and oscillator strengths:

 Excited State   1:      Singlet-A      1.7120 eV  724.22 nm  f=0.3821  <S**2>=0.000
     245 -> 248        0.16247
     246 -> 247        0.68786
     245 <- 248        0.10656
 This state for optimization and/or second-order correction.
 Total Energy, E(TD-HF/TD-DFT) =  -3007.80202018
 Copying the excited state density for this state as the 1-particle RhoCI density.

 Excited State   2:      Singlet-A      2.2339 eV  555.01 nm  f=0.1153  <S**2>=0.000
     245 -> 247        0.63878
     246 -> 248       -0.28270

 Excited State   3:      Singlet-A      3.3770 eV  367.14 nm  f=0.0063  <S**2>=0.000
     241 -> 247        0.53486
     241 -> 249       -0.10316
     244 -> 247       -0.39244

 Excited State   4:      Singlet-A      3.4368 eV  360.76 nm  f=0.0037  <S**2>=0.000
     241 -> 247       -0.11629
     243 -> 247        0.51706
     243 -> 249        0.29721
     243 -> 250        0.30368

 Excited State   5:      Singlet-A      3.4748 eV  356.81 nm  f=0.0032  <S**2>=0.000
     241 -> 247        0.32274
     244 -> 247        0.54448
     246 -> 248        0.17597

 The electronic state is 1-A.
 Alpha  occ. eigenvalues --  -46.94957 -19.30709 -19.29586 -19.25056 -19.24990
 Alpha  occ. eigenvalues --  -19.24800 -19.22915 -14.47261 -14.47096 -14.44377
 Alpha  occ. eigenvalues --  -14.43249 -10.43401 -10.43297 -10.40658 -10.38656
 Alpha  occ. eigenvalues --  -10.36292 -10.36004 -10.35467 -10.35160 -10.35127
 Alpha  occ. eigenvalues --  -10.34680 -10.34394 -10.34385 -10.33301 -10.32978
 Alpha  occ. eigenvalues --  -10.32763 -10.32674 -10.32587 -10.32528 -10.31973
 Alpha  occ. eigenvalues --  -10.31846 -10.31719 -10.31718 -10.31627 -10.31622
 Alpha  occ. eigenvalues --  -10.31413 -10.31383 -10.31306 -10.31187 -10.31090
 Alpha  occ. eigenvalues --  -10.30808 -10.30776 -10.30556 -10.30436 -10.30073
 Alpha  occ. eigenvalues --  -10.30041 -10.30010 -10.29942 -10.29783 -10.29728
 Alpha  occ. eigenvalues --  -10.29411 -10.29383 -10.29313 -10.29023 -10.28908
 Alpha  occ. eigenvalues --  -10.28908 -10.28897 -10.28855 -10.28822 -10.28586
 Alpha  occ. eigenvalues --  -10.28439 -10.28329 -10.28124 -10.28018 -10.27955
 Alpha  occ. eigenvalues --  -10.27513  -3.20997  -1.94608  -1.94114  -1.93978
 Alpha  occ. eigenvalues --   -1.18419  -1.16995  -1.12047  -1.10271  -1.09124
 Alpha  occ. eigenvalues --   -1.08260  -1.07296  -1.06954  -1.06163  -1.05559
 Alpha  occ. eigenvalues --   -0.94120  -0.92611  -0.92316  -0.91900  -0.91172
 Alpha  occ. eigenvalues --   -0.90752  -0.90459  -0.89751  -0.89428  -0.89370
 Alpha  occ. eigenvalues --   -0.88593  -0.87099  -0.86612  -0.85816  -0.85216
 Alpha  occ. eigenvalues --   -0.84528  -0.84060  -0.82967  -0.82582  -0.82396
 Alpha  occ. eigenvalues --   -0.81974  -0.80329  -0.79933  -0.79659  -0.78303
 Alpha  occ. eigenvalues --   -0.77742  -0.77557  -0.77038  -0.76375  -0.76084
 Alpha  occ. eigenvalues --   -0.75518  -0.74811  -0.74011  -0.72267  -0.71968
 Alpha  occ. eigenvalues --   -0.70552  -0.70152  -0.69864  -0.68680  -0.68394
 Alpha  occ. eigenvalues --   -0.67951  -0.67402  -0.67152  -0.66853  -0.66009
 Alpha  occ. eigenvalues --   -0.65754  -0.65498  -0.64479  -0.64234  -0.62531
 Alpha  occ. eigenvalues --   -0.61856  -0.61470  -0.61366  -0.60696  -0.60275
 Alpha  occ. eigenvalues --   -0.59297  -0.59029  -0.58361  -0.58082  -0.57440
 Alpha  occ. eigenvalues --   -0.57106  -0.56893  -0.56455  -0.56350  -0.55945
 Alpha  occ. eigenvalues --   -0.55857  -0.55380  -0.55112  -0.54781  -0.54693
 Alpha  occ. eigenvalues --   -0.54471  -0.54367  -0.54258  -0.54116  -0.53584
 Alpha  occ. eigenvalues --   -0.53405  -0.53203  -0.52990  -0.52642  -0.52545
 Alpha  occ. eigenvalues --   -0.52111  -0.51925  -0.51878  -0.51843  -0.51720
 Alpha  occ. eigenvalues --   -0.51453  -0.51336  -0.51282  -0.50963  -0.50545
 Alpha  occ. eigenvalues --   -0.50424  -0.50363  -0.50168  -0.50057  -0.49641
 Alpha  occ. eigenvalues --   -0.49414  -0.49234  -0.48835  -0.48562  -0.48483
 Alpha  occ. eigenvalues --   -0.48391  -0.47972  -0.47880  -0.47806  -0.47733
 Alpha  occ. eigenvalues --   -0.47676  -0.47623  -0.47363  -0.47191  -0.47100
 Alpha  occ. eigenvalues --   -0.46929  -0.46845  -0.46610  -0.46384  -0.46185
 Alpha  occ. eigenvalues --   -0.46046  -0.45867  -0.45645  -0.45551  -0.45364
 Alpha  occ. eigenvalues --   -0.45199  -0.44623  -0.44468  -0.44408  -0.44312
 Alpha  occ. eigenvalues --   -0.43951  -0.43758  -0.43660  -0.43442  -0.43289
 Alpha  occ. eigenvalues --   -0.43023  -0.42768  -0.42660  -0.42368  -0.42103
 Alpha  occ. eigenvalues --   -0.41716  -0.41709  -0.41544  -0.40852  -0.40601
 Alpha  occ. eigenvalues --   -0.40182  -0.40108  -0.39774  -0.39623  -0.39525
 Alpha  occ. eigenvalues --   -0.39317  -0.39169  -0.39043  -0.38575  -0.38384
 Alpha  occ. eigenvalues --   -0.38352  -0.37521  -0.36863  -0.36615  -0.36301
 Alpha  occ. eigenvalues --   -0.36150  -0.35892  -0.35617  -0.34281  -0.33688
 Alpha  occ. eigenvalues --   -0.32854  -0.32596  -0.31899  -0.31343  -0.26646
 Alpha  occ. eigenvalues --   -0.23446
 Alpha virt. eigenvalues --   -0.07470   0.00045   0.02392   0.03890   0.06176
 Alpha virt. eigenvalues --    0.06583   0.07162   0.07703   0.08191   0.08536
 Alpha virt. eigenvalues --    0.09652   0.10604   0.11840   0.11890   0.12330

 Mulliken charges:
               1
     1  Mg   0.966278
     2  C   -0.017989
     3  C   -0.097740
     4  C   -0.075186
     5  C   -0.039284
     6  N   -0.353504
     7  C   -0.040176
     8  C   -0.019138
     9  C   -0.104325
    10  C    0.090142
    11  C    0.000533
    12  C   -0.021351
    13  C   -0.031273
    14  C    0.234146
    15  O   -0.251582
    16  O   -0.344394
    17  N   -0.463046
    18  C    0.159054
    19  C   -0.144390
    20  C   -0.057161
    21  C    0.183891
    22  C    0.074458
    23  C    0.054916
    24  O   -0.245695
    25  C   -0.044605
    26  N   -0.411526
    27  C    0.099328
    28  C   -0.148902
    29  C   -0.057416
    30  C    0.058137
    31  C    0.021777
    32  C    0.030214
    33  C   -0.046313
    34  N   -0.345432
    35  C    0.050707
    36  C   -0.167081
    37  C   -0.030291
    38  C    0.125412
    39  C    0.084705
    40  C    0.115838
    41  O   -0.275715
    42  C   -0.041341
    43  C    0.261369
    44  O   -0.219776
    45  O   -0.399792
    46  C    0.129431
    47  C    0.221753
    48  C   -0.117778
    49  C   -0.201168
    50  C    0.054575
    51  C    0.012164
    52  C   -0.032143
    53  C    0.000540
    54  C   -0.187475
    55  C    0.016955
    56  C    0.021570
    57  C   -0.024669
    58  C    0.013558
    59  C   -0.190352
    60  C    0.001040
    61  C   -0.005065
    62  C   -0.037510
    63  C    0.031257
    64  C   -0.224633
    65  C   -0.008092
    66  C   -0.000991
    67  H   -0.001342
    68  H   -0.019155
    69  H   -0.001849
    70  H    0.049983
    71  H    0.049228
    72  H    0.045155
    73  H    0.038377
    74  H    0.047237
    75  H    0.056000
    76  H    0.041102
    77  H    0.044567
    78  H    0.047586
    79  H    0.045901
    80  H    0.041065
    81  H    0.065978
    82  H    0.070020
    83  H    0.055587
    84  H    0.056608
    85  H    0.041820
    86  H    0.031220
    87  H    0.024582
    88  H    0.044597
    89  H    0.045119
    90  H    0.029316
    91  H    0.024820
    92  H    0.047340
    93  H    0.010066
    94  H    0.033954
    95  H    0.041318
    96  H    0.036223
    97  H    0.058400
    98  H    0.069318
    99  H    0.058011
   100  H    0.058055
   101  H    0.063454
   102  H    0.043596
   103  H    0.050086
   104  H    0.018853
   105  H    0.035177
   106  H    0.038623
   107  H    0.056026
   108  H    0.018363
   109  H    0.036700
   110  H    0.022930
   111  H    0.027023
   112  H    0.023581
   113  H    0.012511
   114  H    0.023947
   115  H    0.020114
   116  H    0.032081
   117  H    0.031191
   118  H    0.005088
   119  H    0.010292
   120  H    0.019434
   121  H    0.031495
   122  H    0.024329
   123  H    0.011003
   124  H    0.022507
   125  H    0.022769
   126  H    0.027661
   127  H    0.022018
   128  H    0.017258
   129  H    0.014236
   130  H    0.001350
   131  H    0.024754
   132  H    0.011449
   133  H    0.026839
   134  H    0.022328
   135  H    0.023729
   136  H    0.038944
   137  H    0.031605
   138  H    0.019579
   139  H    0.026358
   140  H    0.015068
 Sum of Mulliken charges =  -0.00000

 Dipole moment (field-independent basis, Debye):
    X=              3.5904    Y=              6.5451    Z=              0.0979  Tot=              7.4658
 Quadrupole moment (field-independent basis, Debye-Ang):
   XX=           -404.7608   YY=           -425.8570   ZZ=           -401.5552
   XY=            -37.5216   XZ=            -18.6653   YZ=            -36.5897

 Normal termination of Gaussian 16 at Wed Apr 27 21:32:39 2022.
