 Gaussian 16, Revision A.03,
 Gaussian 16:  ES64L-G16RevA.03 25-Dec-2016

 --------------------
 #p ZINDO=(nstates=5)
 --------------------

 ------------------------------
 step_1301_chromophore_26 ZINDO
 ------------------------------
 Symbolic Z-matrix:
 Charge =  0 Multiplicity = 1

                         Standard orientation:
 ---------------------------------------------------------------------
 Center     Atomic      Atomic             Coordinates (Angstroms)
 Number     Number       Type             X           Y           Z
 ---------------------------------------------------------------------
      1         12           0       -3.827289    1.246088    0.340025
      2          6           0       -4.977609   -1.982754   -0.269517
      3          6           0       -2.759430    0.149942    3.419046
      4          6           0       -2.705306    4.313095    0.896312
      5          6           0       -4.522930    2.005515   -3.030824
      6          7           0       -3.820133   -0.713561    1.373692
      7          6           0       -4.280135   -1.913747    0.890162
      8          6           0       -4.010802   -3.075905    1.813848
      9          6           0       -3.476729   -2.297697    3.121874
     10          6           0       -3.392209   -0.861457    2.662955
     11          6           0       -4.384861   -2.432342    4.437012
     12          6           0       -2.924546   -4.089523    1.359153
     13          6           0       -1.898831   -3.753801    0.243646
     14          6           0       -0.509339   -4.565663    0.252764
     15          8           0       -0.452705   -5.761334    0.415630
     16          8           0        0.533509   -3.713945    0.091259
     17          7           0       -2.867204    2.123693    1.957218
     18          6           0       -2.524163    1.498346    3.093861
     19          6           0       -1.858913    2.451767    3.944077
     20          6           0       -1.857985    3.647020    3.236151
     21          6           0       -2.518529    3.444650    1.968678
     22          6           0       -1.373311    2.064263    5.280993
     23          6           0       -1.351682    4.985032    3.754341
     24          8           0       -1.299182    5.173162    4.980091
     25          6           0       -0.940052    6.191573    2.757900
     26          7           0       -3.640297    2.874910   -0.849813
     27          6           0       -3.338783    4.059898   -0.295630
     28          6           0       -3.280606    5.182507   -1.443992
     29          6           0       -3.799170    4.359985   -2.686974
     30          6           0       -4.014425    3.003844   -2.164851
     31          6           0       -4.129857    6.387262   -0.994121
     32          6           0       -2.844508    4.435222   -3.880890
     33          6           0       -3.530702    4.861417   -5.149477
     34          7           0       -4.669880    0.246336   -1.376683
     35          6           0       -5.012852    0.707631   -2.613285
     36          6           0       -5.757323   -0.315929   -3.339930
     37          6           0       -5.744369   -1.372978   -2.407759
     38          6           0       -5.064396   -0.965302   -1.298139
     39          6           0       -6.542585   -0.245018   -4.582664
     40          6           0       -6.245857   -2.726526   -2.187213
     41          8           0       -7.041428   -3.432928   -2.907726
     42          6           0       -5.722064   -3.240914   -0.792781
     43          6           0       -6.910263   -3.759960   -0.006335
     44          8           0       -7.075733   -4.897467    0.366987
     45          8           0       -7.820181   -2.712190    0.230395
     46          6           0       -9.015574   -3.096333    1.078992
     47          6           0        1.883342   -4.395739    0.166607
     48          6           0        3.015350   -3.403017   -0.117928
     49          6           0        3.413704   -2.978301   -1.335746
     50          6           0        2.700731   -3.254318   -2.651055
     51          6           0        4.704634   -2.125859   -1.430672
     52          6           0        4.370785   -0.689208   -1.238075
     53          6           0        5.406793    0.204495   -1.988736
     54          6           0        5.819814    1.510108   -1.226129
     55          6           0        5.390880    2.754335   -2.063966
     56          6           0        7.343202    1.518732   -0.796854
     57          6           0        7.593809    1.152746    0.665301
     58          6           0        8.143691   -0.353612    0.775644
     59          6           0        9.564320   -0.338879    1.348195
     60          6           0        9.695907   -1.256744    2.534897
     61          6           0       10.673226   -0.735560    0.318437
     62          6           0       12.018703    0.048020    0.608178
     63          6           0       13.223924   -0.745528    0.215010
     64          6           0       14.084223   -0.036053   -0.815608
     65          6           0       13.416069    0.323390   -2.206276
     66          6           0       15.324406   -0.852336   -1.102090
     67          1           0       -2.316752   -0.175741    4.362790
     68          1           0       -2.539404    5.372300    1.101707
     69          1           0       -4.890263    2.394019   -3.983219
     70          1           0       -4.928782   -3.616128    2.045103
     71          1           0       -2.461372   -2.660625    3.280171
     72          1           0       -4.599437   -1.533716    5.014675
     73          1           0       -3.799619   -3.041162    5.126733
     74          1           0       -5.342371   -2.930566    4.284501
     75          1           0       -3.384175   -4.959787    0.892736
     76          1           0       -2.338594   -4.419341    2.217936
     77          1           0       -1.721635   -2.680128    0.190787
     78          1           0       -2.471371   -3.889064   -0.674363
     79          1           0       -0.627538    2.829174    5.495516
     80          1           0       -0.824265    1.123764    5.318018
     81          1           0       -2.103588    2.078031    6.090729
     82          1           0       -1.806537    6.806769    2.516861
     83          1           0       -0.483882    5.913679    1.807043
     84          1           0       -0.269398    6.859939    3.298873
     85          1           0       -2.235235    5.489710   -1.458896
     86          1           0       -4.744398    4.783673   -3.028055
     87          1           0       -4.439215    6.887654   -1.911940
     88          1           0       -3.609524    7.193159   -0.477536
     89          1           0       -5.035437    5.995812   -0.531759
     90          1           0       -2.344372    3.466815   -3.894064
     91          1           0       -1.985409    5.076809   -3.682778
     92          1           0       -3.830853    5.897716   -5.306263
     93          1           0       -4.496644    4.373041   -5.276279
     94          1           0       -3.067189    4.381194   -6.011237
     95          1           0       -5.966514   -0.883117   -5.253166
     96          1           0       -6.676493    0.720382   -5.068840
     97          1           0       -7.454849   -0.841328   -4.551596
     98          1           0       -5.062549   -4.081956   -1.007506
     99          1           0       -8.839709   -2.645486    2.055399
    100          1           0       -9.163670   -4.161581    1.255289
    101          1           0       -9.963078   -2.903755    0.575623
    102          1           0        1.957395   -5.168401   -0.599416
    103          1           0        2.043960   -5.005481    1.055632
    104          1           0        3.653790   -3.139416    0.724763
    105          1           0        1.961016   -4.048931   -2.562773
    106          1           0        3.428916   -3.641093   -3.364405
    107          1           0        2.243495   -2.336589   -3.021110
    108          1           0        5.165184   -2.253903   -2.410580
    109          1           0        5.450343   -2.473985   -0.717005
    110          1           0        4.276601   -0.528835   -0.164161
    111          1           0        3.438830   -0.357026   -1.696195
    112          1           0        5.006082    0.356782   -2.990495
    113          1           0        6.268357   -0.455943   -2.086379
    114          1           0        5.228430    1.491786   -0.309729
    115          1           0        6.288535    3.356518   -2.202394
    116          1           0        4.702750    3.332995   -1.448950
    117          1           0        4.968760    2.506559   -3.038945
    118          1           0        7.831773    2.468608   -1.017765
    119          1           0        7.924394    0.934316   -1.510319
    120          1           0        6.654484    1.117036    1.217868
    121          1           0        8.237313    1.852486    1.197992
    122          1           0        8.224320   -0.913114   -0.157129
    123          1           0        7.458291   -0.866205    1.449983
    124          1           0        9.858177    0.640650    1.726670
    125          1           0        8.755614   -1.160385    3.079107
    126          1           0       10.566368   -1.003495    3.139933
    127          1           0        9.796282   -2.312927    2.285719
    128          1           0       10.397897   -0.582763   -0.724509
    129          1           0       10.851796   -1.801861    0.459483
    130          1           0       12.053048    0.105001    1.695822
    131          1           0       12.061081    1.086866    0.281409
    132          1           0       12.804143   -1.609654   -0.299620
    133          1           0       13.741120   -1.061219    1.120397
    134          1           0       14.449818    0.888023   -0.367272
    135          1           0       12.327667    0.355019   -2.148538
    136          1           0       13.777721   -0.364159   -2.970481
    137          1           0       13.683657    1.350205   -2.456712
    138          1           0       15.236027   -1.894866   -0.793276
    139          1           0       16.214178   -0.448621   -0.618845
    140          1           0       15.591399   -0.947985   -2.154157
 ---------------------------------------------------------------------

 SCF Done:  E(RZINDO/S) =  -474.296321615     A.U. after   19 cycles

 Excitation energies and oscillator strengths:

 Excited State   1:      Singlet-A      1.3122 eV  944.86 nm  f=0.5939  <S**2>=0.000
     175 ->178        -0.15316
     176 ->177         0.67243
 This state for optimization and/or second-order correction.
 Total Energy, E(CIS/TDA) =  -474.248099238
 Copying the excited state density for this state as the 1-particle RhoCI density.

 Excited State   2:      Singlet-A      1.9902 eV  622.98 nm  f=0.0480  <S**2>=0.000
     175 ->177         0.54647
     176 ->178         0.40984

 Excited State   3:      Singlet-A      2.9756 eV  416.67 nm  f=0.0144  <S**2>=0.000
     171 ->177         0.28673
     171 ->179         0.30582
     171 ->180         0.42564
     171 ->185         0.18382
     171 ->187        -0.16434

 Excited State   4:      Singlet-A      3.0075 eV  412.25 nm  f=0.0010  <S**2>=0.000
     167 ->177        -0.18626
     167 ->178         0.16611
     167 ->179         0.32088
     167 ->180        -0.22608
     167 ->185         0.15967
     168 ->177        -0.17558
     168 ->178         0.13137
     168 ->179         0.24039
     168 ->180        -0.17422
     168 ->185         0.11765
     170 ->177        -0.14978
     170 ->179         0.10540

 Excited State   5:      Singlet-A      3.0618 eV  404.94 nm  f=1.1466  <S**2>=0.000
     170 ->177         0.11520
     175 ->177        -0.38232
     176 ->178         0.53772

 The electronic state is 1-A.
 Alpha  occ. eigenvalues --   -1.86611  -1.85000  -1.81739  -1.73583  -1.70718
 Alpha  occ. eigenvalues --   -1.69169  -1.66031  -1.62033  -1.57486  -1.56381
 Alpha  occ. eigenvalues --   -1.54513  -1.51576  -1.50505  -1.48006  -1.45181
 Alpha  occ. eigenvalues --   -1.44334  -1.43328  -1.41876  -1.39725  -1.38580
 Alpha  occ. eigenvalues --   -1.35607  -1.34019  -1.33496  -1.31954  -1.29762
 Alpha  occ. eigenvalues --   -1.28620  -1.26810  -1.22838  -1.20682  -1.18723
 Alpha  occ. eigenvalues --   -1.16921  -1.15367  -1.14759  -1.13766  -1.13151
 Alpha  occ. eigenvalues --   -1.11622  -1.11190  -1.10687  -1.05995  -1.04964
 Alpha  occ. eigenvalues --   -1.03027  -1.02075  -1.00025  -0.98745  -0.98397
 Alpha  occ. eigenvalues --   -0.97412  -0.95170  -0.94310  -0.93127  -0.92849
 Alpha  occ. eigenvalues --   -0.91552  -0.90766  -0.90148  -0.89750  -0.86464
 Alpha  occ. eigenvalues --   -0.85840  -0.84812  -0.83592  -0.82174  -0.80367
 Alpha  occ. eigenvalues --   -0.80211  -0.78377  -0.78093  -0.77580  -0.77532
 Alpha  occ. eigenvalues --   -0.76562  -0.76259  -0.75069  -0.74156  -0.74072
 Alpha  occ. eigenvalues --   -0.73512  -0.72951  -0.72446  -0.71741  -0.70709
 Alpha  occ. eigenvalues --   -0.69857  -0.69402  -0.68677  -0.68088  -0.67461
 Alpha  occ. eigenvalues --   -0.67059  -0.66669  -0.66336  -0.65842  -0.65541
 Alpha  occ. eigenvalues --   -0.65231  -0.65071  -0.64920  -0.64098  -0.63555
 Alpha  occ. eigenvalues --   -0.63536  -0.63053  -0.62745  -0.62618  -0.61956
 Alpha  occ. eigenvalues --   -0.61399  -0.61131  -0.61009  -0.60581  -0.60116
 Alpha  occ. eigenvalues --   -0.59975  -0.59193  -0.58919  -0.58883  -0.58108
 Alpha  occ. eigenvalues --   -0.57775  -0.57576  -0.57244  -0.56846  -0.56185
 Alpha  occ. eigenvalues --   -0.56112  -0.55778  -0.55656  -0.55041  -0.54808
 Alpha  occ. eigenvalues --   -0.54526  -0.54114  -0.54005  -0.53872  -0.53507
 Alpha  occ. eigenvalues --   -0.53153  -0.52861  -0.52811  -0.52521  -0.52147
 Alpha  occ. eigenvalues --   -0.52035  -0.51535  -0.51471  -0.51202  -0.50914
 Alpha  occ. eigenvalues --   -0.50681  -0.50431  -0.49737  -0.49625  -0.49295
 Alpha  occ. eigenvalues --   -0.49169  -0.48898  -0.48551  -0.48461  -0.48255
 Alpha  occ. eigenvalues --   -0.48047  -0.47434  -0.47139  -0.46928  -0.46881
 Alpha  occ. eigenvalues --   -0.46207  -0.46133  -0.46052  -0.45782  -0.45742
 Alpha  occ. eigenvalues --   -0.45165  -0.44797  -0.44494  -0.44148  -0.43880
 Alpha  occ. eigenvalues --   -0.43477  -0.42851  -0.42732  -0.42642  -0.42469
 Alpha  occ. eigenvalues --   -0.42021  -0.41710  -0.41677  -0.39849  -0.39260
 Alpha  occ. eigenvalues --   -0.38293  -0.37576  -0.36627  -0.35329  -0.34641
 Alpha  occ. eigenvalues --   -0.34238  -0.33560  -0.32828  -0.31702  -0.27736
 Alpha  occ. eigenvalues --   -0.22561
 Alpha virt. eigenvalues --   -0.09125  -0.02574  -0.00811   0.00760   0.02074
 Alpha virt. eigenvalues --    0.02114   0.02504   0.03096   0.03752   0.04441
 Alpha virt. eigenvalues --    0.05539   0.06069   0.06250   0.07368   0.07742

 Mulliken charges:
               1
     1  Mg   0.424613
     2  C   -0.046124
     3  C   -0.088842
     4  C   -0.081652
     5  C   -0.073420
     6  N   -0.293804
     7  C    0.107379
     8  C    0.005201
     9  C   -0.001740
    10  C    0.172879
    11  C   -0.053276
    12  C   -0.021631
    13  C   -0.005135
    14  C    0.467504
    15  O   -0.501755
    16  O   -0.258132
    17  N   -0.329706
    18  C    0.143000
    19  C    0.057943
    20  C   -0.023873
    21  C    0.141325
    22  C   -0.036388
    23  C    0.315839
    24  O   -0.508039
    25  C   -0.032539
    26  N   -0.257466
    27  C    0.139889
    28  C   -0.013216
    29  C    0.013254
    30  C    0.101028
    31  C   -0.054652
    32  C   -0.019940
    33  C   -0.059362
    34  N   -0.303420
    35  C    0.052223
    36  C    0.019062
    37  C   -0.065095
    38  C    0.124042
    39  C   -0.037047
    40  C    0.313548
    41  O   -0.554383
    42  C    0.050062
    43  C    0.491313
    44  O   -0.503326
    45  O   -0.277744
    46  C    0.066075
    47  C    0.098857
    48  C   -0.104093
    49  C    0.006507
    50  C   -0.038739
    51  C   -0.015332
    52  C   -0.028239
    53  C   -0.043788
    54  C   -0.015249
    55  C   -0.060215
    56  C   -0.032311
    57  C   -0.036392
    58  C   -0.039466
    59  C   -0.014061
    60  C   -0.054515
    61  C   -0.039853
    62  C   -0.044465
    63  C   -0.026008
    64  C   -0.005466
    65  C   -0.058765
    66  C   -0.058848
    67  H    0.027882
    68  H    0.029214
    69  H    0.027562
    70  H    0.043785
    71  H    0.041305
    72  H    0.026842
    73  H    0.015218
    74  H    0.030548
    75  H    0.028155
    76  H    0.026707
    77  H    0.026277
    78  H    0.039776
    79  H    0.028700
    80  H    0.027462
    81  H    0.046269
    82  H    0.039995
    83  H    0.032666
    84  H    0.036224
    85  H    0.033778
    86  H    0.031564
    87  H    0.007866
    88  H    0.029011
    89  H    0.029869
    90  H    0.024575
    91  H    0.013265
    92  H    0.033070
    93  H    0.007980
    94  H    0.017896
    95  H    0.028439
    96  H    0.027176
    97  H    0.041777
    98  H    0.058794
    99  H    0.037913
   100  H    0.045939
   101  H    0.046364
   102  H    0.041592
   103  H    0.049950
   104  H    0.026104
   105  H    0.025814
   106  H    0.024149
   107  H    0.034845
   108  H    0.016719
   109  H    0.024859
   110  H    0.023358
   111  H    0.017717
   112  H    0.023666
   113  H    0.013710
   114  H    0.021211
   115  H    0.017454
   116  H    0.017580
   117  H    0.026281
   118  H    0.010200
   119  H    0.018635
   120  H    0.015724
   121  H    0.028525
   122  H    0.027322
   123  H    0.017701
   124  H    0.020442
   125  H    0.011216
   126  H    0.016603
   127  H    0.016555
   128  H    0.017422
   129  H    0.021286
   130  H    0.006018
   131  H    0.026579
   132  H    0.016024
   133  H    0.024719
   134  H    0.015994
   135  H    0.017759
   136  H    0.028479
   137  H    0.016333
   138  H    0.012700
   139  H    0.012225
   140  H    0.012635
 Sum of Mulliken charges =   0.00000

 Dipole moment (field-independent basis, Debye):
    X=              5.3090    Y=              8.8355    Z=              1.3467  Tot=             10.3954
 N-N= 4.452642438220D+03 E-N= 0.000000000000D+00  KE=-9.578525111169D+03
 Leave Link  601 at Wed Apr 27 21:45:31 2022, MaxMem=  6710886400 cpu:               1.0 elap:               0.1
 (Enter /sw/apps/gaussian-16.0/g16/l9999.exe)
 1\1\GINC-BP1-COMPUTE132\SP\RZINDO CIS\STO-3G\C55H74Mg1N4O6\OF15641\27-
 Apr-2022\0\\#p ZINDO=(nstates=5)\\step_1301_chromophore_26 ZINDO\\0,1\
 Mg,0,-8.052,19.364,42.648\C,0,-4.62,18.788,42.747\C,0,-7.354,22.717,42
 .344\C,0,-11.319,19.898,42.52\C,0,-8.514,15.876,42.439\N,0,-6.19,20.55
 4,42.488\C,0,-4.899,20.086,42.476\C,0,-3.872,21.164,42.232\C,0,-4.797,
 22.482,42.327\C,0,-6.193,21.92,42.453\C,0,-4.466,23.485,43.534\C,0,-3.
 164,21.151,40.849\C,0,-3.725,20.351,39.643\C,0,-3.303,20.846,38.171\O,

 Normal termination of Gaussian 16 at Wed Apr 27 21:45:31 2022.
